
                                 *****************
                                 * O   R   C   A *
                                 *****************

                                            #,                                       
                                            ###                                      
                                            ####                                     
                                            #####                                    
                                            ######                                   
                                           ########,                                 
                                     ,,################,,,,,                         
                               ,,#################################,,                 
                          ,,##########################################,,             
                       ,#########################################, ''#####,          
                    ,#############################################,,   '####,        
                  ,##################################################,,,,####,       
                ,###########''''           ''''###############################       
              ,#####''   ,,,,##########,,,,          '''####'''          '####       
            ,##' ,,,,###########################,,,                        '##       
           ' ,,###''''                  '''############,,,                           
         ,,##''                                '''############,,,,        ,,,,,,###''
      ,#''                                            '''#######################'''  
     '                                                          ''''####''''         
             ,#######,   #######,   ,#######,      ##                                
            ,#'     '#,  ##    ##  ,#'     '#,    #''#        ,####,   ,####,        
            ##       ##  ##   ,#'  ##            #'  '#       #'       #'  '#        
            ##       ##  #######   ##           ,######,      #####,   #    #        
            '#,     ,#'  ##    ##  '#,     ,#' ,#      #,     #,   #   #,  ,#        
             '#######'   ##     ##  '#######'  #'      '#     '####' # '####'        



                #########################################################
                #                        -***-                          #
                #          Department of theory and spectroscopy        #
                #                                                       #
                #                      Frank Neese                      #
                #                                                       #
                #     Directorship, Architecture, Infrastructure        #
                #                    SHARK, DRIVERS                     #
                #        Core code/Algorithms in most modules           #
                #                                                       #
                #        Max Planck Institute fuer Kohlenforschung      #
                #                Kaiser Wilhelm Platz 1                 #
                #                 D-45470 Muelheim/Ruhr                 #
                #                      Germany                          #
                #                                                       #
                #                  All rights reserved                  #
                #                        -***-                          #
                #########################################################


                         Program Version 6.0.1  -  RELEASE   -


 With contributions from (in alphabetic order):
[Max-Planck-Institut fuer Kohlenforschung]                               
  Daniel Aravena         : Magnetic Suceptibility                        
  Michael Atanasov       : Ab Initio Ligand Field Theory (pilot matlab implementation)
  Alexander A. Auer      : GIAO ZORA, VPT2 properties, NMR spectrum      
  Ute Becker             : All parallelization in ORCA, NUMFREQ, NUMCALC 
  Giovanni Bistoni       : ED, misc. LED, open-shell LED, HFLD           
  Martin Brehm           : Molecular dynamics                            
  Dmytro Bykov           : pre 5.0 version of the SCF Hessian            
  Marcos Casanova-Páez   : Triplet and SCS-CIS(D). UHF-(DLPNO)-IP/EA/STEOM-CCSD. UHF-CVS-IP/STEOM-CCSD   
  Vijay G. Chilkuri      : MRCI spin determinant printing, contributions to CSF-ICE 
  Pauline Colinet        : FMM embedding                                 
  Dipayan Datta          : RHF DLPNO-CCSD density                        
  Achintya Kumar Dutta   : EOM-CC, STEOM-CC                              
  Nicolas Foglia         : Exact transition moments, OPA infrastructure, MCD improvements    
  Dmitry Ganyushin       : Spin-Orbit,Spin-Spin,Magnetic field MRCI      
  Miquel Garcia-Rates    : C-PCM and meta-GGA Hessian, CCSD/C-PCM, Gaussian charge scheme 
  Tiago L. C. Gouveia    : GS-ROHF, GS-ROCIS                             
  Yang Guo               : DLPNO-NEVPT2, F12-NEVPT2, CIM, IAO-localization        
  Andreas Hansen         : Spin unrestricted coupled pair/coupled cluster methods 
  Ingolf Harden          : AUTO-CI MPn and infrastructure                
  Benjamin Helmich-Paris : MC-RPA, TRAH-(SCF,CASSCF), AVAS, COSX integrals, SCF dyn. polar. 
  Lee Huntington         : MR-EOM, pCC                                   
  Robert Izsak           : Overlap fitted RIJCOSX, COSX-SCS-MP3, EOM     
  Riya Kayal             : Wick's Theorem for AUTO-CI, AUTO-CI UHF-CCSDT 
  Emily Kempfer          : AUTO-CI, RHF CISDT and CCSDT                  
  Christian Kollmar      : KDIIS, OOCD, Brueckner-CCSD(T), CCSD density, CASPT2, CASPT2-K, improved NEVPT2 
  Axel Koslowski         : Symmetry handling                             
  Simone Kossmann        : meta-GGA functionals, TD-DFT gradient, OOMP2, (MP2 Hessian; deprecated post 5.0) 
  Lucas Lang             : DCDCAS                                        
  Marvin Lechner         : AUTO-CI (C++ implementation), FIC-MRCC        
  Spencer Leger          : CASSCF response                               
  Dagmar Lenk            : GEPOL surface, SMD, ORCA-2-JSON               
  Dimitrios Liakos       : Extrapolation schemes; Compound Job, initial MDCI parallelization 
  Dimitrios Manganas     : Further ROCIS development; embedding schemes. LFT, Crystal Embedding 
  Dimitrios Pantazis     : SARC Basis sets                               
  Anastasios Papadopoulos: AUTO-CI, single reference methods and gradients 
  Taras Petrenko         : pre 6.0 DFT Hessian and TD-DFT gradient, (ASA, deprecated), ECA, 1-Electron XAS/XES, NRVS 
  Peter Pinski           : DLPNO-MP2, DLPNO-MP2 Gradient                 
  Christoph Reimann      : Effective Core Potentials                     
  Marius Retegan         : Local ZFS, SOC                                
  Christoph Riplinger    : Optimizer, TS searches, QM/MM, DLPNO-CCSD(T), (RO)-DLPNO pert. Triples 
  Michael Roemelt        : Original ROCIS implementation                 
  Masaaki Saitow         : Open-shell DLPNO-CCSD energy and density      
  Barbara Sandhoefer     : DKH picture change effects                    
  Kantharuban Sivalingam : CASSCF convergence/infrastructure, NEVPT2 and variants, FIC-MRCI 
  Bernardo de Souza      : ESD, SOC TD-DFT                               
  Georgi L. Stoychev     : AutoAux, RI-MP2 NMR, DLPNO-MP2 response, X2C  
  Van Anh Tran           : RI-MP2 g-tensors                              
  Willem Van den Heuvel  : Paramagnetic NMR                              
  Zikuan Wang            : NOTCH, Electric field optimization            
  Frank Wennmohs         : Technical directorship and infrastructure     
  Hang Xu                : AUTO-CI-Response properties                   
                                                                         
[FACCTs GmbH]                                                            
  Markus Bursch, Miquel Garcia-Rates, Christoph Riplinger, Bernardo de Souza, Georgi L. Stoychev 
                                                                 
  APM, Basis sets (HGBS, AHGBS, def-TZVP (Ac-Lr), def2-XVPD (La-Lu)), CI-OPT, improved COSX, DLPNO-Multilevel,           
  DOCKER, DRACO, updates on ESD, GOAT, IRC, LR-CPCM, MBIS, meta-GGA TD-DFT gradient, ML-optimized integration grids, 
  MM, NACMEs, nearIR, NEB, NEB-TS, NL-DFT gradient (VV10), 2- and 3-layer-ONIOM, interface openCOSMO-RS, QMMM,   
  Crystal-QMMM, SF, symmetry and pop. for TD-DFT, r2SCAN hybrids, SOLVATOR                                   
                                                                         
[Other institutions]                                                     
  V. Asgeirsson          : NEB                                           
  Christoph Bannwarth    : sTDA-DFT, sTD-DFT, PBEh-3c, B97-3c, D3        
  Sebastian Ehlert       : rSCAN, r2SCAN, r2SCAN-3c, D4, dhf basis sets  
  Marvin Friede          : D4 for Fr, Ra, Ac-Lr                          
  Lars Goerigk           : TD-DFT with DH, B97 family of functionals     
  Stefan Grimme          : VdW corrections, initial TS optimization, DFT functionals, gCP, sTDA/sTD-DF 
  Waldemar Hujo          : DFT-NL                                        
  H. Jonsson             : NEB                                           
  Holger Kruse           : gCP                                           
  Marcel Mueller         : wB97X-3c, vDZP basis set                      
  Hagen Neugebauer       : wr2SCAN                                       
  Tobias Risthaus        : range-separated hybrid DFT                    
  Lukas Wittmann         : regularized MP2, r2SCAN double-hybrids, wr2SCAN        
                                                                         
We gratefully acknowledge several colleagues who have allowed us to      
interface, adapt or use parts of their codes:                            
  Ed Valeev, F. Pavosevic, A. Kumar             : LibInt (2-el integral package), F12 methods 
  Garnet Chan, S. Sharma, J. Yang, R. Olivares  : DMRG                   
  Ulf Ekstrom                                   : XCFun DFT Library      
  Mihaly Kallay                                 : mrcc  (arbitrary order and MRCC methods)
  Frank Weinhold                                : gennbo (NPA and NBO analysis)           
  Simon Mueller                                 : openCOSMO-RS                            
  Christopher J. Cramer and Donald G. Truhlar   : smd solvation model                     
  S Lehtola, MJT Oliveira, MAL Marques          : LibXC Library                           
  Liviu Ungur et al                             : ANISO software                          


 Your calculation uses the libint2 library for the computation of 2-el integrals
 For citations please refer to: http://libint.valeyev.net

 Your ORCA version has been built with support for libXC version: 6.2.2
 For citations please refer to: https://libxc.gitlab.io

 This ORCA versions uses:
   CBLAS   interface :  Fast vector & matrix operations
   LAPACKE interface :  Fast linear algebra routines
   SCALAPACK package :  Parallel linear algebra routines
   Shared memory     :  Shared parallel matrices
   BLAS/LAPACK       :  OpenBLAS 0.3.27  USE64BITINT DYNAMIC_ARCH NO_AFFINITY SapphireRapids SINGLE_THREADED
        Core in use  :  SapphireRapids
   Copyright (c) 2011-2014, The OpenBLAS Project


Warning! Weird basis set assignment to AuxJK basis!


***************************************
The coordinates will be read from file: /scratch/kx58/rs2200/dhdft/inputs/compas3x-xyzs/hc_c24h14_0pent_3.xyz
***************************************


Your calculation utilizes the atom-pairwise dispersion correction
based on EEQ partial charges (D4)


================================================================================

----- Orbital basis set information -----
Your calculation utilizes the basis: def2-TZVP
   F. Weigend and R. Ahlrichs, Phys. Chem. Chem. Phys. 7, 3297 (2005).

----- AuxC basis set information -----
Your calculation utilizes the auxiliary basis: def2-TZVP/C
  H-La, Hf-Rn : A. Hellweg, C. Hattig, S. Hofener and W. Klopper, Theor. Chem. Acc. 117, 587 (2007).
        Ce-Lu : J. Chmela and M. E. Harding, Mol. Phys. (2018).

----- AuxJK basis set information -----
Your calculation utilizes the auxiliary basis: def2-TZVP/C
  H-La, Hf-Rn : A. Hellweg, C. Hattig, S. Hofener and W. Klopper, Theor. Chem. Acc. 117, 587 (2007).
        Ce-Lu : J. Chmela and M. E. Harding, Mol. Phys. (2018).

================================================================================
                                        WARNINGS
                       Please study these warnings very carefully!
================================================================================


WARNING: No MP2 level density has been requested!
         To calculate MP2 level properties use
         %mp2 Density relaxed end
         or
         %mp2 Density unrelaxed end
         Otherwise for double-hybrid DFT only the energy is correct!

================================================================================
                                       INPUT FILE
================================================================================
NAME = compas3x_hc_c24h14_0pent_3_tz_riri.inp
|  1> ! RKS revDSD-PBEP86-D4/2021 defgrid3  RIJK NOPOP NoFrozencore NoUseSym
|  2> 
|  3> %basis
|  4> Basis "def2-TZVP"
|  5> AuxJK "def2-TZVP/C"
|  6> AuxC "def2-TZVP/C"
|  7> end
|  8> 
|  9> %method
| 10> ScalHFX 0.69
| 11> ScalDFX 0.31
| 12> ScalDFC 0.4038
| 13> ScalLDAC 0.4038
| 14> 
| 15> D4S6 0.4612
| 16> D4S8 0.0
| 17> D4A1 0.44
| 18> D4A2 3.60
| 19> end
| 20> 
| 21> %mp2
| 22> PS 0.5979
| 23> PT 0.0571
| 24> end
| 25> 
| 26> %pal
| 27> nprocs 104
| 28> end
| 29> 
| 30> *XYZFILE 0 1 /scratch/kx58/rs2200/dhdft/inputs/compas3x-xyzs/hc_c24h14_0pent_3.xyz
| 31> 
| 32>                          ****END OF INPUT****
================================================================================

                       ****************************
                       * Single Point Calculation *
                       ****************************

---------------------------------
CARTESIAN COORDINATES (ANGSTROEM)
---------------------------------
  C      1.732563   -0.719903   -0.487950
  C      0.830613   -1.803951   -0.351062
  C     -0.561599   -1.561928   -0.212120
  C     -1.048764   -0.236491   -0.102548
  C     -0.101624    0.848300    0.022661
  C      1.232089    0.632415   -0.344866
  C      3.082037   -1.008159   -0.682974
  C      3.541812   -2.314151   -0.734622
  C      2.668152   -3.371885   -0.608608
  C      1.303739   -3.136854   -0.425989
  C      0.370789   -4.211252   -0.343473
  C     -0.958222   -3.977655   -0.267398
  C     -1.469984   -2.648249   -0.230666
  C     -2.843515   -2.393872   -0.239101
  C     -3.305424   -1.096365   -0.293877
  C     -2.422610   -0.030154   -0.229771
  C     -0.486952    2.144217    0.499115
  C      0.364770    3.251168    0.254715
  C      1.624989    3.023404   -0.344445
  C      2.068549    1.756475   -0.555679
  C     -1.627560    2.365160    1.297064
  C     -1.972706    3.625348    1.710481
  C     -1.194636    4.731117    1.350859
  C     -0.031600    4.540014    0.656106
  H      3.803680   -0.212945   -0.779746
  H      4.596796   -2.499353   -0.876768
  H      3.027122   -4.389644   -0.661361
  H      0.755690   -5.220877   -0.372622
  H     -1.664944   -4.795110   -0.241482
  H     -3.535010   -3.224074   -0.247770
  H     -4.364627   -0.903185   -0.384394
  H     -2.807977    0.972973   -0.324324
  H      2.252356    3.872472   -0.575110
  H      3.066621    1.610980   -0.936345
  H     -2.205477    1.521010    1.640400
  H     -2.844752    3.767632    2.332112
  H     -1.493425    5.721693    1.660771
  H      0.618041    5.373679    0.429787

----------------------------
CARTESIAN COORDINATES (A.U.)
----------------------------
  NO LB      ZA    FRAG     MASS         X           Y           Z
   0 C     6.0000    0    12.011    3.274069   -1.360420   -0.922091
   1 C     6.0000    0    12.011    1.569631   -3.408973   -0.663411
   2 C     6.0000    0    12.011   -1.061269   -2.951616   -0.400849
   3 C     6.0000    0    12.011   -1.981877   -0.446904   -0.193789
   4 C     6.0000    0    12.011   -0.192041    1.603054    0.042822
   5 C     6.0000    0    12.011    2.328311    1.195091   -0.651702
   6 C     6.0000    0    12.011    5.824206   -1.905144   -1.290634
   7 C     6.0000    0    12.011    6.693055   -4.373112   -1.388234
   8 C     6.0000    0    12.011    5.042077   -6.371940   -1.150103
   9 C     6.0000    0    12.011    2.463710   -5.927794   -0.805002
  10 C     6.0000    0    12.011    0.700689   -7.958113   -0.649069
  11 C     6.0000    0    12.011   -1.810776   -7.516678   -0.505309
  12 C     6.0000    0    12.011   -2.777867   -5.004465   -0.435896
  13 C     6.0000    0    12.011   -5.373465   -4.523762   -0.451835
  14 C     6.0000    0    12.011   -6.246347   -2.071830   -0.555346
  15 C     6.0000    0    12.011   -4.578069   -0.056984   -0.434203
  16 C     6.0000    0    12.011   -0.920206    4.051983    0.943191
  17 C     6.0000    0    12.011    0.689315    6.143817    0.481342
  18 C     6.0000    0    12.011    3.070784    5.713405   -0.650907
  19 C     6.0000    0    12.011    3.908991    3.319256   -1.050081
  20 C     6.0000    0    12.011   -3.075642    4.469505    2.451096
  21 C     6.0000    0    12.011   -3.727874    6.850914    3.232341
  22 C     6.0000    0    12.011   -2.257534    8.940516    2.552753
  23 C     6.0000    0    12.011   -0.059716    8.579384    1.239860
  24 H     1.0000    0     1.008    7.187914   -0.402407   -1.473506
  25 H     1.0000    0     1.008    8.686686   -4.723092   -1.656852
  26 H     1.0000    0     1.008    5.720431   -8.295226   -1.249792
  27 H     1.0000    0     1.008    1.428047   -9.866027   -0.704154
  28 H     1.0000    0     1.008   -3.146288   -9.061446   -0.456335
  29 H     1.0000    0     1.008   -6.680201   -6.092617   -0.468218
  30 H     1.0000    0     1.008   -8.247949   -1.706773   -0.726400
  31 H     1.0000    0     1.008   -5.306308    1.838653   -0.612884
  32 H     1.0000    0     1.008    4.256335    7.317912   -1.086800
  33 H     1.0000    0     1.008    5.795074    3.044311   -1.769435
  34 H     1.0000    0     1.008   -4.167748    2.874293    3.099906
  35 H     1.0000    0     1.008   -5.375802    7.119793    4.407053
  36 H     1.0000    0     1.008   -2.822164   10.812432    3.138402
  37 H     1.0000    0     1.008    1.167928   10.154781    0.812180

--------------------------------
INTERNAL COORDINATES (ANGSTROEM)
--------------------------------
 C      0   0   0     0.000000000000     0.00000000     0.00000000
 C      1   0   0     1.416831319120     0.00000000     0.00000000
 C      2   1   0     1.419906567789   120.21320679     0.00000000
 C      3   2   1     1.416374831827   120.28621261   354.97433993
 C      4   3   2     1.445518575895   118.92099233   352.84873569
 C      5   4   3     1.400168551576   119.05717088    18.13904433
 C      1   2   3     1.393630645888   118.14410784   182.89113591
 C      7   1   2     1.385524348491   121.43352872   359.58692453
 C      8   7   1     1.377665759437   120.65387595     0.74105776
 C      9   8   7     1.396500094899   120.15450896   359.96790829
 C     10   9   8     1.425319983298   121.34715208   177.59085796
 C     11  10   9     1.351526260611   121.10604187   185.01130871
 C      3   2   1     1.416192134641   119.79431586   172.74432355
 C     13   3   2     1.396913575006   119.41202419   186.88161874
 C     14  13   3     1.378362331666   120.07694517     3.09795472
 C     15  14  13     1.385740483530   120.59400250   354.64698416
 C      5   4   3     1.433488308015   122.07933575   197.49990064
 C     17   5   4     1.417921648478   119.14409186   197.47872709
 C     18  17   5     1.413867647172   118.86098201   354.31174473
 C     19  18  17     1.358850672159   120.46563541   353.31030576
 C     17   5   4     1.409441088228   123.19026237    22.66904927
 C     21  17   5     1.370442139140   121.24831539   181.21654476
 C     22  21  17     1.399088338054   120.60813240   359.85713461
 C     23  22  21     1.368157105485   119.53001845   355.61691195
 H      7   1   2     1.078192212860   120.53802466   180.75598103
 H      8   7   1     1.080507252735   119.37153746   180.65075515
 H      9   8   7     1.080497793379   120.53349511   179.24256936
 H     11  10   9     1.080898100726   117.99831723     3.25810774
 H     12  11  10     1.080907932312   120.90171738   177.73862247
 H     14  13   3     1.080498314682   119.30099207   180.33330108
 H     15  14  13     1.080473085680   120.00996070   174.84515013
 H     16  15  14     1.078755532969   118.93632111   176.98995387
 H     19  18  17     1.080607707372   118.77418507   176.99119364
 H     20  19  18     1.078064593520   118.87641382   185.15122771
 H     21  17   5     1.079099987114   119.40012684     5.07780724
 H     22  21  17     1.080339453066   119.86648055   180.77636775
 H     23  22  21     1.080074422116   119.81882392   178.31282460
 H     24  23  22     1.080856273362   120.63217173   184.33367851

---------------------------
INTERNAL COORDINATES (A.U.)
---------------------------
 C      0   0   0     0.000000000000     0.00000000     0.00000000
 C      1   0   0     2.677423171099     0.00000000     0.00000000
 C      2   1   0     2.683234548877   120.21320679     0.00000000
 C      3   2   1     2.676560535133   120.28621261   354.97433993
 C      4   3   2     2.731634229937   118.92099233   352.84873569
 C      5   4   3     2.645935103807   119.05717088    18.13904433
 C      1   2   3     2.633580252568   118.14410784   182.89113591
 C      7   1   2     2.618261570527   121.43352872   359.58692453
 C      8   7   1     2.603410989416   120.65387595     0.74105776
 C      9   8   7     2.639002725355   120.15450896   359.96790829
 C     10   9   8     2.693464421639   121.34715208   177.59085796
 C     11  10   9     2.554014495357   121.10604187   185.01130871
 C      3   2   1     2.676215287484   119.79431586   172.74432355
 C     13   3   2     2.639784089518   119.41202419   186.88161874
 C     14  13   3     2.604727320161   120.07694517     3.09795472
 C     15  14  13     2.618670006560   120.59400250   354.64698416
 C      5   4   3     2.708900318326   122.07933575   197.49990064
 C     17   5   4     2.679483594982   119.14409186   197.47872709
 C     18  17   5     2.671822642766   118.86098201   354.31174473
 C     19  18  17     2.567855627275   120.46563541   353.31030576
 C     17   5   4     2.663457658647   123.19026237    22.66904927
 C     21  17   5     2.589760325359   121.24831539   181.21654476
 C     22  21  17     2.643893796085   120.60813240   359.85713461
 C     23  22  21     2.585442237544   119.53001845   355.61691195
 H      7   1   2     2.037488002032   120.53802466   180.75598103
 H      8   7   1     2.041862793385   119.37153746   180.65075515
 H      9   8   7     2.041844917792   120.53349511   179.24256936
 H     11  10   9     2.042601389048   117.99831723     3.25810774
 H     12  11  10     2.042619968053   120.90171738   177.73862247
 H     14  13   3     2.041845902913   119.30099207   180.33330108
 H     15  14  13     2.041798227008   120.00996070   174.84515013
 H     16  15  14     2.038552522764   118.93632111   176.98995387
 H     19  18  17     2.042052625138   118.77418507   176.99119364
 H     20  19  18     2.037246836430   118.87641382   185.15122771
 H     21  17   5     2.039203446764   119.40012684     5.07780724
 H     22  21  17     2.041545697964   119.86648055   180.77636775
 H     23  22  21     2.041044862052   119.81882392   178.31282460
 H     24  23  22     2.042522346785   120.63217173   184.33367851

---------------------
BASIS SET INFORMATION
---------------------
There are 2 groups of distinct atoms

 Group   1 Type C   : 11s6p2d1f contracted to 5s3p2d1f pattern {62111/411/11/1}
 Group   2 Type H   : 5s1p contracted to 3s1p pattern {311/1}

Atom   0C    basis set group =>   1
Atom   1C    basis set group =>   1
Atom   2C    basis set group =>   1
Atom   3C    basis set group =>   1
Atom   4C    basis set group =>   1
Atom   5C    basis set group =>   1
Atom   6C    basis set group =>   1
Atom   7C    basis set group =>   1
Atom   8C    basis set group =>   1
Atom   9C    basis set group =>   1
Atom  10C    basis set group =>   1
Atom  11C    basis set group =>   1
Atom  12C    basis set group =>   1
Atom  13C    basis set group =>   1
Atom  14C    basis set group =>   1
Atom  15C    basis set group =>   1
Atom  16C    basis set group =>   1
Atom  17C    basis set group =>   1
Atom  18C    basis set group =>   1
Atom  19C    basis set group =>   1
Atom  20C    basis set group =>   1
Atom  21C    basis set group =>   1
Atom  22C    basis set group =>   1
Atom  23C    basis set group =>   1
Atom  24H    basis set group =>   2
Atom  25H    basis set group =>   2
Atom  26H    basis set group =>   2
Atom  27H    basis set group =>   2
Atom  28H    basis set group =>   2
Atom  29H    basis set group =>   2
Atom  30H    basis set group =>   2
Atom  31H    basis set group =>   2
Atom  32H    basis set group =>   2
Atom  33H    basis set group =>   2
Atom  34H    basis set group =>   2
Atom  35H    basis set group =>   2
Atom  36H    basis set group =>   2
Atom  37H    basis set group =>   2
---------------------------------
AUXILIARY/C BASIS SET INFORMATION
---------------------------------
There are 2 groups of distinct atoms

 Group   1 Type C   : 8s6p5d3f1g contracted to 8s6p4d3f1g pattern {11111111/111111/2111/111/1}
 Group   2 Type H   : 4s3p2d contracted to 4s2p1d pattern {1111/21/2}

Atom   0C    basis set group =>   1
Atom   1C    basis set group =>   1
Atom   2C    basis set group =>   1
Atom   3C    basis set group =>   1
Atom   4C    basis set group =>   1
Atom   5C    basis set group =>   1
Atom   6C    basis set group =>   1
Atom   7C    basis set group =>   1
Atom   8C    basis set group =>   1
Atom   9C    basis set group =>   1
Atom  10C    basis set group =>   1
Atom  11C    basis set group =>   1
Atom  12C    basis set group =>   1
Atom  13C    basis set group =>   1
Atom  14C    basis set group =>   1
Atom  15C    basis set group =>   1
Atom  16C    basis set group =>   1
Atom  17C    basis set group =>   1
Atom  18C    basis set group =>   1
Atom  19C    basis set group =>   1
Atom  20C    basis set group =>   1
Atom  21C    basis set group =>   1
Atom  22C    basis set group =>   1
Atom  23C    basis set group =>   1
Atom  24H    basis set group =>   2
Atom  25H    basis set group =>   2
Atom  26H    basis set group =>   2
Atom  27H    basis set group =>   2
Atom  28H    basis set group =>   2
Atom  29H    basis set group =>   2
Atom  30H    basis set group =>   2
Atom  31H    basis set group =>   2
Atom  32H    basis set group =>   2
Atom  33H    basis set group =>   2
Atom  34H    basis set group =>   2
Atom  35H    basis set group =>   2
Atom  36H    basis set group =>   2
Atom  37H    basis set group =>   2
----------------------------------
AUXILIARY/JK BASIS SET INFORMATION
----------------------------------
There are 2 groups of distinct atoms

 Group   1 Type C   : 8s6p5d3f1g contracted to 8s6p4d3f1g pattern {11111111/111111/2111/111/1}
 Group   2 Type H   : 4s3p2d contracted to 4s2p1d pattern {1111/21/2}

Atom   0C    basis set group =>   1
Atom   1C    basis set group =>   1
Atom   2C    basis set group =>   1
Atom   3C    basis set group =>   1
Atom   4C    basis set group =>   1
Atom   5C    basis set group =>   1
Atom   6C    basis set group =>   1
Atom   7C    basis set group =>   1
Atom   8C    basis set group =>   1
Atom   9C    basis set group =>   1
Atom  10C    basis set group =>   1
Atom  11C    basis set group =>   1
Atom  12C    basis set group =>   1
Atom  13C    basis set group =>   1
Atom  14C    basis set group =>   1
Atom  15C    basis set group =>   1
Atom  16C    basis set group =>   1
Atom  17C    basis set group =>   1
Atom  18C    basis set group =>   1
Atom  19C    basis set group =>   1
Atom  20C    basis set group =>   1
Atom  21C    basis set group =>   1
Atom  22C    basis set group =>   1
Atom  23C    basis set group =>   1
Atom  24H    basis set group =>   2
Atom  25H    basis set group =>   2
Atom  26H    basis set group =>   2
Atom  27H    basis set group =>   2
Atom  28H    basis set group =>   2
Atom  29H    basis set group =>   2
Atom  30H    basis set group =>   2
Atom  31H    basis set group =>   2
Atom  32H    basis set group =>   2
Atom  33H    basis set group =>   2
Atom  34H    basis set group =>   2
Atom  35H    basis set group =>   2
Atom  36H    basis set group =>   2
Atom  37H    basis set group =>   2


           ************************************************************
           *        Program running with 104 parallel MPI-processes   *
           *              working on a common directory               *
           ************************************************************
------------------------------------------------------------------------------
                             ORCA STARTUP CALCULATIONS
                           -- RI-GTO INTEGRALS CHOSEN --
------------------------------------------------------------------------------
------------------------------------------------------------------------------
                   ___                                                        
                  /   \      - P O W E R E D   B Y -                         
                 /     \                                                     
                 |  |  |   _    _      __       _____    __    __             
                 |  |  |  | |  | |    /  \     |  _  \  |  |  /  |          
                  \  \/   | |  | |   /    \    | | | |  |  | /  /          
                 / \  \   | |__| |  /  /\  \   | |_| |  |  |/  /          
                |  |  |   |  __  | /  /__\  \  |    /   |      \           
                |  |  |   | |  | | |   __   |  |    \   |  |\   \          
                \     /   | |  | | |  |  |  |  | |\  \  |  | \   \       
                 \___/    |_|  |_| |__|  |__|  |_| \__\ |__|  \__/        
                                                                              
                      - O R C A' S   B I G   F R I E N D -                    
                                      &                                       
                       - I N T E G R A L  F E E D E R -                       
                                                                              
 v1 FN, 2020, v2 2021, v3 2022-2024                                           
------------------------------------------------------------------------------


----------------------
SHARK INTEGRAL PACKAGE
----------------------

Number of atoms                             ...     38
Number of basis functions                   ...    828
Number of shells                            ...    320
Maximum angular momentum                    ...      3
Integral batch strategy                     ... SHARK/LIBINT Hybrid
RI-J (if used) integral strategy            ... SPLIT-RIJ (Revised 2003 algorithm where possible)
Printlevel                                  ...      1
Contraction scheme used                     ... SEGMENTED contraction
Prescreening option                         ... SCHWARTZ
   Thresh                                   ... 1.000e-10
   Tcut                                     ... 1.000e-11
   Tpresel                                  ... 1.000e-11 
Coulomb Range Separation                    ... NOT USED
Exchange Range Separation                   ... NOT USED
Multipole approximations                    ... NOT USED
Finite Nucleus Model                        ... NOT USED
CABS basis                                  ... NOT available
Auxiliary Coulomb fitting basis             ... NOT available
Auxiliary J/K fitting basis                 ... AVAILABLE
   # of basis functions in Aux-JK           ...   2034
   # of shells in Aux-JK                    ...    626
   Maximum angular momentum in Aux-JK       ...      4
Auxiliary Correlation fitting basis         ... AVAILABLE
   # of basis functions in Aux-C            ...   2034
   # of shells in Aux-C                     ...    626
   Maximum angular momentum in Aux-C        ...      4
Auxiliary 'external' fitting basis          ... NOT available

Checking pre-screening integrals            ... done (  0.0 sec) Dimension = 320
Check shell pair data                       ... done (  0.0 sec)
Shell pair information
Shell pair cut-off parameter TPreSel        ...   1.0e-11
Total number of shell pairs                 ...     51360
Shell pairs after pre-screening             ...     37140
Total number of primitive shell pairs       ...    159900
Primitive shell pairs kept                  ...     76974
          la=0 lb=0:   8973 shell pairs
          la=1 lb=0:  10500 shell pairs
          la=1 lb=1:   3044 shell pairs
          la=2 lb=0:   5474 shell pairs
          la=2 lb=1:   3203 shell pairs
          la=2 lb=2:    870 shell pairs
          la=3 lb=0:   2553 shell pairs
          la=3 lb=1:   1524 shell pairs
          la=3 lb=2:    796 shell pairs
          la=3 lb=3:    203 shell pairs

Calculating one electron integrals          ... done (  0.1 sec)
Calculating RI/JK V-Matrix + Cholesky decomp... done (  0.5 sec)
Calculating RI/C V-Matrix + Cholesky decomp.... done (  0.5 sec)
Calculating Nuclear repulsion               ... done (  0.0 sec) ENN=   1829.048436687932 Eh

Diagonalization of the overlap matrix:
Smallest eigenvalue                        ... 2.420e-06
Time for diagonalization                   ...    0.112 sec
Threshold for overlap eigenvalues          ... 1.000e-07
Number of eigenvalues below threshold      ... 0
Time for construction of square roots      ...    0.051 sec
Total time needed                          ...    0.188 sec

-------------------
DFT GRID GENERATION
-------------------

General Integration Accuracy     IntAcc      ... 4.959
Radial Grid Type                 RadialGrid  ... OptM3 with GC (2021)
Angular Grid (max. ang.)         AngularGrid ... 6 (Lebedev-590)
Angular grid pruning method      GridPruning ... 4 (adaptive)
Weight generation scheme         WeightScheme... mBecke (2022)
Basis function cutoff            BFCut       ... 1.0000e-10
Integration weight cutoff        WCut        ... 1.0000e-14
Partially contracted basis set               ... off
Rotationally invariant grid construction     ... off
Angular grids for H and He will be reduced by one unit

Total number of grid points                  ...   457354
Total number of batches                      ...     7163
Average number of points per batch           ...       63
Average number of grid points per atom       ...    12036
Initializing property integral containers    ... done (  0.0 sec)

SHARK setup successfully completed in   5.9 seconds

Maximum memory used throughout the entire STARTUP-calculation: 119.7 MB


           ************************************************************
           *        Program running with 104 parallel MPI-processes   *
           *              working on a common directory               *
           ************************************************************
-------------------------------------------------------------------------------
                                 ORCA GUESS
                   Start orbitals & Density for SCF / CASSCF
-------------------------------------------------------------------------------

------------
SCF SETTINGS
------------
Hamiltonian:
 Density Functional     Method          .... DFT(GTOs)
 Exchange Functional    Exchange        .... PBE
   PBE kappa parameter   XKappa         ....  0.804000
   PBE mue parameter    XMuePBE         ....  0.219520
 Correlation Functional Correlation     .... P86
 LDA part of GGA corr.  LDAOpt          .... VWN-5
 Gradients option       PostSCFGGA      .... off
 Hybrid DFT is turned on
   Fraction HF Exchange ScalHFX         ....  0.690000
   Scaling of DF-GGA-X  ScalDFX         ....  0.310000
   Scaling of DF-GGA-C  ScalDFC         ....  0.403800
   Scaling of DF-LDA-C  ScalLDAC        ....  0.403800
   Perturbative correction              ....  1.000000
 RI-approximation to the Coulomb term is turned on
   Number of AuxJK basis functions      .... 2034
   RI-JK (J+K treated both via RI)      .... on


General Settings:
 Integral files         IntName         .... compas3x_hc_c24h14_0pent_3_tz_riri
 Hartree-Fock type      HFTyp           .... RHF
 Total Charge           Charge          ....    0
 Multiplicity           Mult            ....    1
 Number of Electrons    NEL             ....  158
 Basis Dimension        Dim             ....  828
 Nuclear Repulsion      ENuc            ....   1829.0484366879 Eh

Convergence Acceleration:
 AO-DIIS                CNVDIIS         .... on
   Start iteration      DIISMaxIt       ....    12
   Startup error        DIISStart       ....  0.200000
   # of expansion vecs  DIISMaxEq       ....     5
   Bias factor          DIISBfac        ....   1.050
   Max. coefficient     DIISMaxC        ....  10.000
 MO-DIIS                CNVKDIIS        .... off
 Trust-Rad. Augm. Hess. CNVTRAH         .... auto
   Auto Start mean grad. ratio tolernc. ....  1.125000
   Auto Start start iteration           ....    50
   Auto Start num. interpolation iter.  ....    10
   Max. Number of Micro iterations      ....    24
   Max. Number of Macro iterations      .... Maxiter - #DIIS iter
   Number of Davidson start vectors     ....     2
   Converg. threshold    (grad. norm)   ....   5.000e-05
   Grad. Scal. Fac. for Micro threshold ....   0.100
   Minimum threshold for Micro iter.    ....   1.000e-02
   NR start threshold (gradient norm)   ....   1.000e-04
   Initial trust radius                 ....   0.400
   Minimum AH scaling param. (alpha)    ....   1.000
   Maximum AH scaling param. (alpha)    .... 1000.000
   Quad. conv. algorithm                .... NR
   White noise on init. David. guess    .... on
   Maximum white noise                  ....   0.010
   Pseudo random numbers                .... off
   Inactive MOs                         .... canonical
   Orbital update algorithm             .... Taylor
   Preconditioner                       .... Diag
   Full preconditioner red. dimension   ....   250
 SOSCF                  CNVSOSCF        .... on
   Start iteration      SOSCFMaxIt      ....   150
   Startup grad/error   SOSCFStart      ....  0.003300
   Hessian update       SOSCFHessUp     .... L-BFGS
 Level Shifting         CNVShift        .... on
   Level shift para.    LevelShift      ....    0.2500
   Turn off err/grad.   ShiftErr        ....    0.0010
 Zerner damping         CNVZerner       .... off
 Static damping         CNVDamp         .... on
   Fraction old density DampFac         ....    0.7000
   Max. Damping (<1)    DampMax         ....    0.9800
   Min. Damping (>=0)   DampMin         ....    0.0000
   Turn off err/grad.   DampErr         ....    0.1000

SCF Procedure:
 Maximum # iterations   MaxIter         ....   125
 SCF integral mode      SCFMode         .... Direct
   Integral package                     .... SHARK and LIBINT hybrid scheme
 Reset frequency        DirectResetFreq ....    20
 Integral Threshold     Thresh          ....  1.000e-10 Eh
 Primitive CutOff       TCut            ....  1.000e-11 Eh

Convergence Tolerance:
 Convergence Check Mode ConvCheckMode   .... Total+1el-Energy
 Convergence forced     ConvForced      .... 0
 Energy Change          TolE            ....  1.000e-06 Eh
 1-El. energy change                    ....  1.000e-03 Eh
 Orbital Gradient       TolG            ....  5.000e-05
 Orbital Rotation angle TolX            ....  5.000e-05
 DIIS Error             TolErr          ....  1.000e-06

------------------------------
INITIAL GUESS: MODEL POTENTIAL
------------------------------
Loading Hartree-Fock densities                     ... done
Calculating cut-offs                               ... done
Initializing the effective Hamiltonian             ... done
Setting up the integral package (SHARK)            ... done
Starting the Coulomb interaction                   ... done (   0.1 sec)
Making the grid                                    ... done (   0.3 sec)
Mapping shells                                     ... done
Starting the XC term evaluation                    ... done (   0.1 sec)
  promolecular density results
     # of electrons  =    157.990646966
     EX              =   -127.048671324
     EC              =      0.198272225
     EX+EC           =   -126.850399100
Transforming the Hamiltonian                       ... done (   0.1 sec)
Diagonalizing the Hamiltonian                      ... done (   0.1 sec)
Back transforming the eigenvectors                 ... done (   0.1 sec)
Now organizing SCF variables                       ... done
                      ------------------
                      INITIAL GUESS DONE (   0.9 sec)
                      ------------------
             **** ENERGY FILE WAS UPDATED (compas3x_hc_c24h14_0pent_3_tz_riri.en.tmp) ****
Finished Guess after  15.7 sec
Maximum memory used throughout the entire GUESS-calculation: 68.4 MB


           ************************************************************
           *        Program running with 104 parallel MPI-processes   *
           *              working on a common directory               *
           ************************************************************

-------------------------------------------------------------------------------------------
                                      ORCA LEAN-SCF
                              memory conserving SCF solver
-------------------------------------------------------------------------------------------

----------------------------------------D-I-I-S--------------------------------------------
Iteration    Energy (Eh)           Delta-E    RMSDP     MaxDP     DIISErr   Damp  Time(sec)
-------------------------------------------------------------------------------------------
    1    -919.0123298233338573     0.00e+00  1.01e-03  3.56e-02  1.45e-01  0.700   3.7
    2    -918.8157496917269782     1.97e-01  1.12e-03  4.55e-02  1.31e-01  0.700   4.0
                               ***Turning on AO-DIIS***
    3    -918.9257619748073012    -1.10e-01  9.42e-04  3.93e-02  7.87e-02  0.700   3.7
    4    -919.1429442348216980    -2.17e-01  1.82e-03  9.17e-02  3.24e-02  0.000   3.6
    5    -919.4970082133263531    -3.54e-01  4.98e-04  2.26e-02  3.34e-02  0.000   3.6
    6    -919.5113193993911409    -1.43e-02  3.03e-04  1.72e-02  1.66e-02  0.000   3.7
    7    -919.5150256861124944    -3.71e-03  1.32e-04  7.48e-03  5.58e-03  0.000   3.9
                              *** Initializing SOSCF ***
---------------------------------------S-O-S-C-F--------------------------------------
Iteration    Energy (Eh)           Delta-E    RMSDP     MaxDP     MaxGrad    Time(sec)
--------------------------------------------------------------------------------------
    8    -919.5155094911410742    -4.84e-04  5.79e-05  3.59e-03  1.41e-03     4.0
    9    -919.5155520046769198    -4.25e-05  3.44e-05  1.19e-03  1.51e-04     3.4
   10    -919.5155556175132006    -3.61e-06  2.33e-05  1.58e-03  1.35e-04     3.4
   11    -919.5155563910125238    -7.73e-07  8.84e-06  3.28e-04  6.33e-05     3.4
                 **** Energy Check signals convergence ****

               *****************************************************
               *                     SUCCESS                       *
               *           SCF CONVERGED AFTER  11 CYCLES          *
               *****************************************************

             **** ENERGY FILE WAS UPDATED (compas3x_hc_c24h14_0pent_3_tz_riri.en.tmp) ****

----------------
TOTAL SCF ENERGY
----------------

Total Energy       :       -919.51555639101252 Eh          -25021.29035 eV

Components:
Nuclear Repulsion  :       1829.04843668793228 Eh           49770.93827 eV
Electronic Energy  :      -2748.56399307894480 Eh          -74792.22862 eV
One Electron Energy:      -4878.68088368374720 Eh         -132755.65601 eV
Two Electron Energy:       2130.11689060480239 Eh           57963.42740 eV

Virial components:
Potential Energy   :      -1837.10236597047560 Eh          -49990.09683 eV
Kinetic Energy     :        917.58680957946308 Eh           24968.80648 eV
Virial Ratio       :          2.00210197748204

DFT components:
N(Alpha)           :       78.999997314398 electrons
N(Beta)            :       78.999997314398 electrons
N(Total)           :      157.999994628796 electrons
E(X)               :      -40.067605168352 Eh       
E(C)               :       -2.356816698956 Eh       
E(XC)              :      -42.424421867308 Eh       

---------------
SCF CONVERGENCE
---------------

  Last Energy change         ...    7.7350e-07  Tolerance :   1.0000e-06
  Last MAX-Density change    ...    3.2781e-04  Tolerance :   1.0000e-05
  Last RMS-Density change    ...    8.8442e-06  Tolerance :   1.0000e-06
  Last DIIS Error            ...    1.4146e-03  Tolerance :   1.0000e-06
  Last Orbital Gradient      ...    6.3332e-05  Tolerance :   5.0000e-05
  Last Orbital Rotation      ...    1.2743e-04  Tolerance :   5.0000e-05


----------------
ORBITAL ENERGIES
----------------

  NO   OCC          E(Eh)            E(eV) 
   0   2.0000     -10.836773      -294.8836 
   1   2.0000     -10.835145      -294.8393 
   2   2.0000     -10.834407      -294.8192 
   3   2.0000     -10.833787      -294.8023 
   4   2.0000     -10.832576      -294.7694 
   5   2.0000     -10.830639      -294.7167 
   6   2.0000     -10.830048      -294.7006 
   7   2.0000     -10.829367      -294.6821 
   8   2.0000     -10.829069      -294.6740 
   9   2.0000     -10.828351      -294.6544 
  10   2.0000     -10.822236      -294.4880 
  11   2.0000     -10.821738      -294.4745 
  12   2.0000     -10.820895      -294.4515 
  13   2.0000     -10.820858      -294.4505 
  14   2.0000     -10.820534      -294.4417 
  15   2.0000     -10.820282      -294.4349 
  16   2.0000     -10.820199      -294.4326 
  17   2.0000     -10.819993      -294.4270 
  18   2.0000     -10.819370      -294.4100 
  19   2.0000     -10.819234      -294.4063 
  20   2.0000     -10.819153      -294.4041 
  21   2.0000     -10.818748      -294.3931 
  22   2.0000     -10.818491      -294.3861 
  23   2.0000     -10.817736      -294.3655 
  24   2.0000      -1.098092       -29.8806 
  25   2.0000      -1.069357       -29.0987 
  26   2.0000      -1.044426       -28.4203 
  27   2.0000      -1.024522       -27.8787 
  28   2.0000      -0.991856       -26.9898 
  29   2.0000      -0.973551       -26.4917 
  30   2.0000      -0.955759       -26.0075 
  31   2.0000      -0.935399       -25.4535 
  32   2.0000      -0.912504       -24.8305 
  33   2.0000      -0.897499       -24.4222 
  34   2.0000      -0.889319       -24.1996 
  35   2.0000      -0.874655       -23.8006 
  36   2.0000      -0.787116       -21.4185 
  37   2.0000      -0.782131       -21.2829 
  38   2.0000      -0.776780       -21.1373 
  39   2.0000      -0.772878       -21.0311 
  40   2.0000      -0.749733       -20.4013 
  41   2.0000      -0.724930       -19.7264 
  42   2.0000      -0.694745       -18.9050 
  43   2.0000      -0.672293       -18.2940 
  44   2.0000      -0.654489       -17.8096 
  45   2.0000      -0.636257       -17.3134 
  46   2.0000      -0.629029       -17.1168 
  47   2.0000      -0.621730       -16.9181 
  48   2.0000      -0.599308       -16.3080 
  49   2.0000      -0.588134       -16.0039 
  50   2.0000      -0.581472       -15.8226 
  51   2.0000      -0.557189       -15.1619 
  52   2.0000      -0.551804       -15.0154 
  53   2.0000      -0.546032       -14.8583 
  54   2.0000      -0.540255       -14.7011 
  55   2.0000      -0.530944       -14.4477 
  56   2.0000      -0.524026       -14.2595 
  57   2.0000      -0.518244       -14.1021 
  58   2.0000      -0.513281       -13.9671 
  59   2.0000      -0.508988       -13.8503 
  60   2.0000      -0.494297       -13.4505 
  61   2.0000      -0.486953       -13.2507 
  62   2.0000      -0.480103       -13.0643 
  63   2.0000      -0.469434       -12.7740 
  64   2.0000      -0.463135       -12.6025 
  65   2.0000      -0.454506       -12.3677 
  66   2.0000      -0.446304       -12.1446 
  67   2.0000      -0.437502       -11.9050 
  68   2.0000      -0.432090       -11.7578 
  69   2.0000      -0.414430       -11.2772 
  70   2.0000      -0.408127       -11.1057 
  71   2.0000      -0.386736       -10.5236 
  72   2.0000      -0.368850       -10.0369 
  73   2.0000      -0.345846        -9.4109 
  74   2.0000      -0.333350        -9.0709 
  75   2.0000      -0.299997        -8.1633 
  76   2.0000      -0.283121        -7.7041 
  77   2.0000      -0.266851        -7.2614 
  78   2.0000      -0.235886        -6.4188 
  79   0.0000       0.001689         0.0460 
  80   0.0000       0.026176         0.7123 
  81   0.0000       0.036778         1.0008 
  82   0.0000       0.052369         1.4250 
  83   0.0000       0.080625         2.1939 
  84   0.0000       0.105288         2.8650 
  85   0.0000       0.114558         3.1173 
  86   0.0000       0.117335         3.1929 
  87   0.0000       0.118718         3.2305 
  88   0.0000       0.127982         3.4826 
  89   0.0000       0.131471         3.5775 
*Only the first 10 virtual orbitals were printed.
-------
TIMINGS
-------

Total SCF time: 0 days 0 hours 0 min 55 sec 

Total time                  ....      55.810 sec
Sum of individual times     ....      55.535 sec  ( 99.5%)

SCF preparation             ....      14.808 sec  ( 26.5%)
Fock matrix formation       ....      31.780 sec  ( 56.9%)
  Startup                   ....       1.225 sec  (  3.9% of F)
  RI-JK                     ....      23.287 sec  ( 73.3% of F)
  XC integration            ....       4.990 sec  ( 15.7% of F)
    XC Preparation          ....       0.000 sec  (  0.0% of XC)
    Basis function eval.    ....       0.456 sec  (  9.1% of XC)
    Density eval.           ....       0.692 sec  ( 13.9% of XC)
    XC-Functional eval.     ....       0.030 sec  (  0.6% of XC)
    XC-Potential eval.      ....       0.893 sec  ( 17.9% of XC)
Diagonalization             ....       0.000 sec  (  0.0%)
Density matrix formation    ....       1.521 sec  (  2.7%)
Total Energy calculation    ....       0.996 sec  (  1.8%)
Population analysis         ....       0.000 sec  (  0.0%)
Orbital Transformation      ....       0.764 sec  (  1.4%)
Orbital Orthonormalization  ....       0.000 sec  (  0.0%)
DIIS solution               ....       4.439 sec  (  8.0%)
SOSCF solution              ....       1.146 sec  (  2.1%)
Finished LeanSCF after  56.1 sec

Maximum memory used throughout the entire LEANSCF-calculation: 146.3 MB


           ************************************************************
           *        Program running with 104 parallel MPI-processes   *
           *              working on a common directory               *
           ************************************************************

------------------------------------------------------------------------------
                                ORCA  MP2 
------------------------------------------------------------------------------


-------------
RI-MP2 ENERGY
-------------
Dimension of the orbital basis            ...  828
Dimension of the AuxC basis               ... 2034
Memory devoted to MP2                     ... 4096 MB   
Data format for matrix containers         ... DOUBLE
Compression type for matrix containers    ... UNCOMPRESSED
Scaling for aa/bb pairs                   ...   5.710e-02
Scaling for ab pairs                      ...   5.979e-01
Overall scaling of the MP2 energy         ...   1.000e+00

-----------------------
SHARK RI TRANSFORMATION
-----------------------

Number of basis functions                ...    828
Number of aux functions                  ...   2034
Number of operators                      ...      1
Generation of IJK                        ... NO
Generation of IAK                        ... YES
Generation of ABK                        ... NO
Orbital Range Operator  0:    0-  78 to   79- 827

Aux basis identifier                     ...   AUXC
Contraction scheme used                  ... SEGMENTED
Do orthogonalization                     ... YES
All operator combinations                ... NO
Transpose (ia|K)                         ... NO
Integral generator used                  ... LIBINT
Starting integral generation + trafo... 
Half trafo (segmented) done. Total time =  0.8 sec. integrals=  0.3 sec trafo=  0.3 sec
Integral generation and half transformation done (  0.8 sec)

Reading or making V^(-1/2)          ... done (  0.1 sec)
Sorting IAK integrals               ... done (  2.3 sec)

SHARK RI integral transformation done. Total time =  3.2 sec.

Opening buffers                              ... done

Starting loop over batches of integrals:

Operator 0  - window                       ... (  0- 78)x( 79-827)
Operator 0  - Memory available             ...  4096 MB
Operator 0  - Memory needed per MO         ...  11.6 MB
Operator 0  - Number of orbitals per batch ... 1
Operator 0  - Number of batches            ... 1

OPERATOR  0   PASS   0:  MOs     0 ...    0 +    1 ...    1 +    2 ...    2 +    3 ...    3
                            +    4 ...    4 +    5 ...    5 +    6 ...    6 +    7 ...    7
                            +    8 ...    8 +    9 ...    9 +   10 ...   10 +   11 ...   11
                            +   12 ...   12 +   13 ...   13 +   14 ...   14 +   15 ...   15
                            +   16 ...   16 +   17 ...   17 +   18 ...   18 +   19 ...   19
                            +   20 ...   20 +   21 ...   21 +   22 ...   22 +   23 ...   23
                            +   24 ...   24 +   25 ...   25 +   26 ...   26 +   27 ...   27
                            +   28 ...   28 +   29 ...   29 +   30 ...   30 +   31 ...   31
                            +   32 ...   32 +   33 ...   33 +   34 ...   34 +   35 ...   35
                            +   36 ...   36 +   37 ...   37 +   38 ...   38 +   39 ...   39
                            +   40 ...   40 +   41 ...   41 +   42 ...   42 +   43 ...   43
                            +   44 ...   44 +   45 ...   45 +   46 ...   46 +   47 ...   47
                            +   48 ...   48 +   49 ...   49 +   50 ...   50 +   51 ...   51
                            +   52 ...   52 +   53 ...   53 +   54 ...   54 +   55 ...   55
                            +   56 ...   56 +   57 ...   57 +   58 ...   58 +   59 ...   59
                            +   60 ...   60 +   61 ...   61 +   62 ...   62 +   63 ...   63
                            +   64 ...   64 +   65 ...   65 +   66 ...   66 +   67 ...   67
                            +   68 ...   68 +   69 ...   69 +   70 ...   70 +   71 ...   71
                            +   72 ...   72 +   73 ...   73 +   74 ...   74 +   75 ...   75
                            +   76 ...   76 +   77 ...   77 +   78 ...   78
  Reading integrals       ... ok
Time spent in pair loops =     4.829 sec

-----------------------------------------------
 RI-MP2 CORRELATION ENERGY:     -2.138863894 Eh
-----------------------------------------------


-------
TIMINGS
-------

Total time                :    9.013 sec
Integral trafo            :    3.367 sec ( 37.4%)
I/O of integrals          :    0.006 sec (  0.1%)
K(i,j) operators          :    0.045 sec (  0.5%)
T(i,j) pair energies      :    0.008 sec (  0.1%)
V**(-1/2)                 :    0.813 sec (  9.0%)


---------------------------------------
MP2 TOTAL ENERGY:     -921.654420285 Eh
---------------------------------------

Maximum memory used throughout the entire MP2-calculation: 112.5 MB


-------------------------------------------------------------------------------
                          DFT DISPERSION CORRECTION                            
                                                                               
                                DFTD4 V3.4.0                                   
-------------------------------------------------------------------------------
The REV-DSD-PBEP86-2021 functional is recognized
A user input s6-coefficient scaling factor has been recognized
A user input a1-coefficient scaling factor has been recognized
A user input s8-coefficient scaling factor has been recognized
A user input a2-coefficient scaling factor has been recognized
A user input s9-coefficient scaling factor has been recognized
Active option DFTDOPT                   ...         5   

-------------------------   ----------------
Dispersion correction           -0.038700540
-------------------------   ----------------


-------------------------   --------------------
FINAL SINGLE POINT ENERGY      -921.693120824094
-------------------------   --------------------



           ************************************************************
           *        Program running with 104 parallel MPI-processes   *
           *              working on a common directory               *
           ************************************************************

------------------------------------------------------------------------------
                              ORCA PROPERTY CALCULATIONS
------------------------------------------------------------------------------

GBWName                                 ... compas3x_hc_c24h14_0pent_3_tz_riri.gbw
Number of atoms                         ...     38
Number of basis functions               ...    828
Max core memory                         ...   1024 MB

Electric properties:
Dipole moment                           ... YES
Quadrupole moment                       ...  NO
Static polarizability (Dipole/Dipole)   ...  NO
Static polarizability (Dipole/Quad.)    ...  NO
Static polarizability (Quad./Quad.)     ...  NO
Static polarizability (Velocity)        ...  NO

Atomic electric properties:
Dipole moment                           ...  NO
Quadrupole moment                       ...  NO
Static polarizability                   ...  NO

Choice of electric origin               ... Center of mass
Position of electric origin             ...     0.054655    -0.109546    -0.045676

General magnetic properties:
Magnetizability                         ...  NO

EPR properties:
g-Tensor (aka g-matrix)                 ...  NO
Zero-Field splitting spin-orbit         ...  NO
Zero-field splitting spin-spin          ...  NO
Hyperfine couplings                     ...  NO (   0 nuclei)
Quadrupole couplings                    ...  NO (   0 nuclei)
Contact density                         ...  NO (   0 nuclei)

NMR properties:
Chemical shifts                         ...  NO (   0 nuclei)
Spin-rotation constants                 ...  NO (   0 nuclei)
Spin-spin couplings                     ...  NO (   0 nuclei,    0 pairs)

Choice of magnetic origin               ... GIAO
Position of magnetic origin             ...     0.000000     0.000000     0.000000

Properties with geometric perturbations:
SCF Hessian                             ...  NO
IR spectrum                             ...  NO
VCD spectrum                            ...  NO
X-ray spectroscopy properties:
SCF XES/XAS/RIXS spectra                ...  NO


-------------
DIPOLE MOMENT
-------------

Method             : SCF
Type of density    : Electron Density
Multiplicity       :   1
Irrep              :   0
Energy             :  -919.5155563910125238 Eh
Relativity type    : 
Basis              : AO
                                X                 Y                 Z
Electronic contribution:      1.125820443      -2.241730813      -0.931869084
Nuclear contribution   :     -1.126576798       2.258023246       0.939617038
                        -----------------------------------------
Total Dipole Moment    :     -0.000756355       0.016292433       0.007747954
                        -----------------------------------------
Magnitude (a.u.)       :      0.018056750
Magnitude (Debye)      :      0.045896612



--------------------
Rotational spectrum 
--------------------
 
Rotational constants in cm-1:             0.015182             0.007007             0.004921 
Rotational constants in MHz :           455.137755           210.074119           147.525374 

Dipole components along the rotational axes: 
x,y,z [a.u.] :     0.017271     0.001866     0.004928 
x,y,z [Debye]:     0.043898     0.004744     0.012527 

 

Dipole moment calculation done in   0.1 sec 

Maximum memory used throughout the entire PROP-calculation: 70.8 MB

--------------------------------
SUGGESTED CITATIONS FOR THIS RUN
--------------------------------

Below you find a list of papers that are relevant to this ORCA run
We neither can nor want to force you to cite these papers, but we appreciate if you do
You receive ORCA, which is the product of decades of hard work by many enthusiastic individuals, for free
The only thing we kindly ask in return is that you cite our papers,
We deeply appreciate it, if you show your appreciation for ORCA by not just citing the generic ORCA reference.

Please note that relegating all ORCA citations to the supporting information does *not* help us.
SI sections are not indexed - citations you put there will not count into any citation statistics
But we need these citations in order to attract the funding resources that allow us to do what we are doing

Therefore, if you are a happy ORCA user, please consider citing a few of the papers listed below in the main body of your paper

In addition to the list printed below, the program has created the file compas3x_hc_c24h14_0pent_3_tz_riri.bibtex that contains the list in bibtex format
You can import this file easily into all common literature databanks and citation aid programs


List of essential papers. We consider these as the minimum necessary citations

  1. Neese,F.
     Software update: the ORCA program system, version 5.0
     WIRES Comput. Molec. Sci., 2022 12(1)e1606
     doi.org/10.1002/wcms.1606

List of papers to cite with high priority. The work reported in these papers was absolutely
necessary for this run to complete.
Our perspective: the developers of density functionals and basis sets usually get cited in chemistry papers
Good! But without the algorithms to do something with them, the functionals or basis sets would not do anything.
Hence, in our opinion, the algorithm design and method developments papers are equally worthy of getting cited

  1. Neese,F.
     An improvement of the resolution of the identity approximation for the formation of the Coulomb matrix
     J. Comp. Chem., 2003 24(14)1740-1747
     doi.org/10.1002/jcc.10318
  2. Kossmann,S.; Neese,F.
     Comparison of two efficient approximate Hartee-Fock approaches
     Chem. Phys. Lett., 2009 481 240-243
     doi.org/10.1016/j.cplett.2009.09.073
  3. Neese,F.
     The SHARK Integral Generation and Digestion System
     J. Comp. Chem., 2022  1-16
     doi.org/10.1002/jcc.26942
  4. Caldeweyher,E.; Bannwarth,C.; Grimme,S.
     Extension of the D3 dispersion coefficient model
     J. Chem. Phys., 2017 147 034112
     doi.org/10.1063/1.4993215
  5. Caldeweyher,E.; Ehlert,S.; Hansen,A.; Neugebauer,H.; Spicher,S.; Bannwarth,C.; Grimme,S.
     A generally applicable atomic-charge dependent London dispersion correction
     J. Chem. Phys., 2019 150 154122
     doi.org/10.1063/1.5090222
  6. Caldeweyher,E.; Mewes,J.; Ehlert,S.; Grimme,S.
     Extension and evaluation of the D4 London-dispersion model for periodic systems
     Phys. Chem. Chem. Phys., 2020 22(16)8499-8512
     doi.org/10.1039/D0CP00502A
  7. Wittmann,L.; Gordiy,I.; Friede,M.; Helmich-Paris,B.; Grimme,S.; Hansen,A.; Bursch,M.
     Extension of the D3 and D4 London Dispersion Corrections to the full Actinides Series
     Phys. Chem. Chem. Phys., 2024 26(32)21379-21394
     doi.org/https://doi.org/10.1039/D4CP01514B 

List of suggested additional citations. These are papers that are important in the 'surrounding' of 
of this run, or papers that preceded the highly important papers. If you like your results we are grateful for a citation.

  1. Neese,F.
     The ORCA program system
     WIRES Comput. Molec. Sci., 2012 2(1)73-78
     doi.org/10.1002/wcms.81
  2. Neese,F.
     Software update: the ORCA program system, version 4.0
     WIRES Comput. Molec. Sci., 2018 8(1)1-6
     doi.org/10.1002/wcms.1327
  3. Neese,F.; Wennmohs,F.; Becker,U.; Riplinger,C.
     The ORCA quantum chemistry program package
     J. Chem. Phys., 2020 152 Art. No. L224108
     doi.org/10.1063/5.0004608

List of optional additional citations

  1. Neese,F.
     Approximate second-order SCF convergence for spin unrestricted wavefunctions
     Chem. Phys. Lett., 2000 325(1-3)93-98
     doi.org/10.1016/s0009-2614(00)00662-x

Timings for individual modules:

Sum of individual times          ...      138.071 sec (=   2.301 min)
Startup calculation              ...       21.515 sec (=   0.359 min)  15.6 %
SCF iterations                   ...       75.030 sec (=   1.251 min)  54.3 %
Property calculations            ...       16.228 sec (=   0.270 min)  11.8 %
MP2 module                       ...       25.298 sec (=   0.422 min)  18.3 %
                             ****ORCA TERMINATED NORMALLY****
TOTAL RUN TIME: 0 days 0 hours 2 minutes 44 seconds 217 msec
