
                                 *****************
                                 * O   R   C   A *
                                 *****************

                                            #,                                       
                                            ###                                      
                                            ####                                     
                                            #####                                    
                                            ######                                   
                                           ########,                                 
                                     ,,################,,,,,                         
                               ,,#################################,,                 
                          ,,##########################################,,             
                       ,#########################################, ''#####,          
                    ,#############################################,,   '####,        
                  ,##################################################,,,,####,       
                ,###########''''           ''''###############################       
              ,#####''   ,,,,##########,,,,          '''####'''          '####       
            ,##' ,,,,###########################,,,                        '##       
           ' ,,###''''                  '''############,,,                           
         ,,##''                                '''############,,,,        ,,,,,,###''
      ,#''                                            '''#######################'''  
     '                                                          ''''####''''         
             ,#######,   #######,   ,#######,      ##                                
            ,#'     '#,  ##    ##  ,#'     '#,    #''#        ,####,   ,####,        
            ##       ##  ##   ,#'  ##            #'  '#       #'       #'  '#        
            ##       ##  #######   ##           ,######,      #####,   #    #        
            '#,     ,#'  ##    ##  '#,     ,#' ,#      #,     #,   #   #,  ,#        
             '#######'   ##     ##  '#######'  #'      '#     '####' # '####'        



                #########################################################
                #                        -***-                          #
                #          Department of theory and spectroscopy        #
                #                                                       #
                #                      Frank Neese                      #
                #                                                       #
                #     Directorship, Architecture, Infrastructure        #
                #                    SHARK, DRIVERS                     #
                #        Core code/Algorithms in most modules           #
                #                                                       #
                #        Max Planck Institute fuer Kohlenforschung      #
                #                Kaiser Wilhelm Platz 1                 #
                #                 D-45470 Muelheim/Ruhr                 #
                #                      Germany                          #
                #                                                       #
                #                  All rights reserved                  #
                #                        -***-                          #
                #########################################################


                         Program Version 6.0.1  -  RELEASE   -


 With contributions from (in alphabetic order):
[Max-Planck-Institut fuer Kohlenforschung]                               
  Daniel Aravena         : Magnetic Suceptibility                        
  Michael Atanasov       : Ab Initio Ligand Field Theory (pilot matlab implementation)
  Alexander A. Auer      : GIAO ZORA, VPT2 properties, NMR spectrum      
  Ute Becker             : All parallelization in ORCA, NUMFREQ, NUMCALC 
  Giovanni Bistoni       : ED, misc. LED, open-shell LED, HFLD           
  Martin Brehm           : Molecular dynamics                            
  Dmytro Bykov           : pre 5.0 version of the SCF Hessian            
  Marcos Casanova-Páez   : Triplet and SCS-CIS(D). UHF-(DLPNO)-IP/EA/STEOM-CCSD. UHF-CVS-IP/STEOM-CCSD   
  Vijay G. Chilkuri      : MRCI spin determinant printing, contributions to CSF-ICE 
  Pauline Colinet        : FMM embedding                                 
  Dipayan Datta          : RHF DLPNO-CCSD density                        
  Achintya Kumar Dutta   : EOM-CC, STEOM-CC                              
  Nicolas Foglia         : Exact transition moments, OPA infrastructure, MCD improvements    
  Dmitry Ganyushin       : Spin-Orbit,Spin-Spin,Magnetic field MRCI      
  Miquel Garcia-Rates    : C-PCM and meta-GGA Hessian, CCSD/C-PCM, Gaussian charge scheme 
  Tiago L. C. Gouveia    : GS-ROHF, GS-ROCIS                             
  Yang Guo               : DLPNO-NEVPT2, F12-NEVPT2, CIM, IAO-localization        
  Andreas Hansen         : Spin unrestricted coupled pair/coupled cluster methods 
  Ingolf Harden          : AUTO-CI MPn and infrastructure                
  Benjamin Helmich-Paris : MC-RPA, TRAH-(SCF,CASSCF), AVAS, COSX integrals, SCF dyn. polar. 
  Lee Huntington         : MR-EOM, pCC                                   
  Robert Izsak           : Overlap fitted RIJCOSX, COSX-SCS-MP3, EOM     
  Riya Kayal             : Wick's Theorem for AUTO-CI, AUTO-CI UHF-CCSDT 
  Emily Kempfer          : AUTO-CI, RHF CISDT and CCSDT                  
  Christian Kollmar      : KDIIS, OOCD, Brueckner-CCSD(T), CCSD density, CASPT2, CASPT2-K, improved NEVPT2 
  Axel Koslowski         : Symmetry handling                             
  Simone Kossmann        : meta-GGA functionals, TD-DFT gradient, OOMP2, (MP2 Hessian; deprecated post 5.0) 
  Lucas Lang             : DCDCAS                                        
  Marvin Lechner         : AUTO-CI (C++ implementation), FIC-MRCC        
  Spencer Leger          : CASSCF response                               
  Dagmar Lenk            : GEPOL surface, SMD, ORCA-2-JSON               
  Dimitrios Liakos       : Extrapolation schemes; Compound Job, initial MDCI parallelization 
  Dimitrios Manganas     : Further ROCIS development; embedding schemes. LFT, Crystal Embedding 
  Dimitrios Pantazis     : SARC Basis sets                               
  Anastasios Papadopoulos: AUTO-CI, single reference methods and gradients 
  Taras Petrenko         : pre 6.0 DFT Hessian and TD-DFT gradient, (ASA, deprecated), ECA, 1-Electron XAS/XES, NRVS 
  Peter Pinski           : DLPNO-MP2, DLPNO-MP2 Gradient                 
  Christoph Reimann      : Effective Core Potentials                     
  Marius Retegan         : Local ZFS, SOC                                
  Christoph Riplinger    : Optimizer, TS searches, QM/MM, DLPNO-CCSD(T), (RO)-DLPNO pert. Triples 
  Michael Roemelt        : Original ROCIS implementation                 
  Masaaki Saitow         : Open-shell DLPNO-CCSD energy and density      
  Barbara Sandhoefer     : DKH picture change effects                    
  Kantharuban Sivalingam : CASSCF convergence/infrastructure, NEVPT2 and variants, FIC-MRCI 
  Bernardo de Souza      : ESD, SOC TD-DFT                               
  Georgi L. Stoychev     : AutoAux, RI-MP2 NMR, DLPNO-MP2 response, X2C  
  Van Anh Tran           : RI-MP2 g-tensors                              
  Willem Van den Heuvel  : Paramagnetic NMR                              
  Zikuan Wang            : NOTCH, Electric field optimization            
  Frank Wennmohs         : Technical directorship and infrastructure     
  Hang Xu                : AUTO-CI-Response properties                   
                                                                         
[FACCTs GmbH]                                                            
  Markus Bursch, Miquel Garcia-Rates, Christoph Riplinger, Bernardo de Souza, Georgi L. Stoychev 
                                                                 
  APM, Basis sets (HGBS, AHGBS, def-TZVP (Ac-Lr), def2-XVPD (La-Lu)), CI-OPT, improved COSX, DLPNO-Multilevel,           
  DOCKER, DRACO, updates on ESD, GOAT, IRC, LR-CPCM, MBIS, meta-GGA TD-DFT gradient, ML-optimized integration grids, 
  MM, NACMEs, nearIR, NEB, NEB-TS, NL-DFT gradient (VV10), 2- and 3-layer-ONIOM, interface openCOSMO-RS, QMMM,   
  Crystal-QMMM, SF, symmetry and pop. for TD-DFT, r2SCAN hybrids, SOLVATOR                                   
                                                                         
[Other institutions]                                                     
  V. Asgeirsson          : NEB                                           
  Christoph Bannwarth    : sTDA-DFT, sTD-DFT, PBEh-3c, B97-3c, D3        
  Sebastian Ehlert       : rSCAN, r2SCAN, r2SCAN-3c, D4, dhf basis sets  
  Marvin Friede          : D4 for Fr, Ra, Ac-Lr                          
  Lars Goerigk           : TD-DFT with DH, B97 family of functionals     
  Stefan Grimme          : VdW corrections, initial TS optimization, DFT functionals, gCP, sTDA/sTD-DF 
  Waldemar Hujo          : DFT-NL                                        
  H. Jonsson             : NEB                                           
  Holger Kruse           : gCP                                           
  Marcel Mueller         : wB97X-3c, vDZP basis set                      
  Hagen Neugebauer       : wr2SCAN                                       
  Tobias Risthaus        : range-separated hybrid DFT                    
  Lukas Wittmann         : regularized MP2, r2SCAN double-hybrids, wr2SCAN        
                                                                         
We gratefully acknowledge several colleagues who have allowed us to      
interface, adapt or use parts of their codes:                            
  Ed Valeev, F. Pavosevic, A. Kumar             : LibInt (2-el integral package), F12 methods 
  Garnet Chan, S. Sharma, J. Yang, R. Olivares  : DMRG                   
  Ulf Ekstrom                                   : XCFun DFT Library      
  Mihaly Kallay                                 : mrcc  (arbitrary order and MRCC methods)
  Frank Weinhold                                : gennbo (NPA and NBO analysis)           
  Simon Mueller                                 : openCOSMO-RS                            
  Christopher J. Cramer and Donald G. Truhlar   : smd solvation model                     
  S Lehtola, MJT Oliveira, MAL Marques          : LibXC Library                           
  Liviu Ungur et al                             : ANISO software                          


 Your calculation uses the libint2 library for the computation of 2-el integrals
 For citations please refer to: http://libint.valeyev.net

 Your ORCA version has been built with support for libXC version: 6.2.2
 For citations please refer to: https://libxc.gitlab.io

 This ORCA versions uses:
   CBLAS   interface :  Fast vector & matrix operations
   LAPACKE interface :  Fast linear algebra routines
   SCALAPACK package :  Parallel linear algebra routines
   Shared memory     :  Shared parallel matrices
   BLAS/LAPACK       :  OpenBLAS 0.3.27  USE64BITINT DYNAMIC_ARCH NO_AFFINITY SapphireRapids SINGLE_THREADED
        Core in use  :  SapphireRapids
   Copyright (c) 2011-2014, The OpenBLAS Project




***************************************
The coordinates will be read from file: /scratch/kx58/rs2200/dhdft/inputs/compas3x-xyzs/hc_c24h14_0pent_9.xyz
***************************************


Your calculation utilizes the atom-pairwise dispersion correction
based on EEQ partial charges (D4)


================================================================================

----- Orbital basis set information -----
Your calculation utilizes the basis: def2-TZVP
   F. Weigend and R. Ahlrichs, Phys. Chem. Chem. Phys. 7, 3297 (2005).

----- AuxC basis set information -----
Your calculation utilizes the auxiliary basis: def2-TZVP/C
  H-La, Hf-Rn : A. Hellweg, C. Hattig, S. Hofener and W. Klopper, Theor. Chem. Acc. 117, 587 (2007).
        Ce-Lu : J. Chmela and M. E. Harding, Mol. Phys. (2018).

----- AuxJK basis set information -----
Your calculation utilizes the auxiliary basis: def2/JK
   H-Ba, Hf-Rn: F. Weigend, J. Comput. Chem. 29, 167 (2008).

================================================================================
                                        WARNINGS
                       Please study these warnings very carefully!
================================================================================


WARNING: No MP2 level density has been requested!
         To calculate MP2 level properties use
         %mp2 Density relaxed end
         or
         %mp2 Density unrelaxed end
         Otherwise for double-hybrid DFT only the energy is correct!

================================================================================
                                       INPUT FILE
================================================================================
NAME = compas3x_hc_c24h14_0pent_9_tz_rijk.inp
|  1> ! RKS revDSD-PBEP86-D4/2021 defgrid3  RIJK NOPOP NoFrozencore NoUseSym
|  2> 
|  3> %basis
|  4> Basis "def2-TZVP"
|  5> AuxJK "def2/JK"
|  6> AuxC "def2-TZVP/C"
|  7> end
|  8> 
|  9> %method
| 10> ScalHFX 0.69
| 11> ScalDFX 0.31
| 12> ScalDFC 0.4038
| 13> ScalLDAC 0.4038
| 14> 
| 15> D4S6 0.4612
| 16> D4S8 0.0
| 17> D4A1 0.44
| 18> D4A2 3.60
| 19> end
| 20> 
| 21> %mp2
| 22> PS 0.5979
| 23> PT 0.0571
| 24> end
| 25> 
| 26> %pal
| 27> nprocs 104
| 28> end
| 29> 
| 30> *XYZFILE 0 1 /scratch/kx58/rs2200/dhdft/inputs/compas3x-xyzs/hc_c24h14_0pent_9.xyz
| 31> 
| 32>                          ****END OF INPUT****
================================================================================

                       ****************************
                       * Single Point Calculation *
                       ****************************

---------------------------------
CARTESIAN COORDINATES (ANGSTROEM)
---------------------------------
  C      1.779810   -0.604854    0.004850
  C      0.368642   -0.608241    0.005975
  C     -0.368591    0.608345    0.006008
  C      0.338228    1.847633    0.006803
  C      1.760512    1.820751    0.009180
  C      2.445709    0.654218    0.007862
  C      2.493252   -1.841485    0.000543
  C      1.762779   -3.064445    0.000812
  C      0.363200   -3.038497    0.004836
  C     -0.338176   -1.847530    0.006462
  C     -1.760461   -1.820647    0.008525
  C     -2.445658   -0.654114    0.007264
  C     -1.779758    0.604958    0.004645
  C     -2.493199    1.841591    0.000469
  C     -1.762726    3.064550    0.000954
  C     -0.363148    3.038601    0.005176
  C      3.901802   -1.924992   -0.005282
  C      4.548190   -3.130249   -0.010303
  C      3.822852   -4.330987   -0.009362
  C      2.459690   -4.294724   -0.003780
  C     -3.901749    1.925099   -0.005399
  C     -4.548136    3.130357   -0.010321
  C     -3.822798    4.331094   -0.009250
  C     -2.459636    4.294830   -0.003584
  H      2.285271    2.765788    0.011617
  H      3.523432    0.684438    0.009611
  H     -0.178247   -3.974541    0.005684
  H     -2.285220   -2.765685    0.010657
  H     -3.523381   -0.684335    0.008729
  H      0.178299    3.974645    0.006207
  H      4.495132   -1.024441   -0.006581
  H      5.628020   -3.163126   -0.015226
  H      4.349661   -5.273897   -0.013328
  H      1.883159   -5.209001   -0.003280
  H     -4.495081    1.024549   -0.006780
  H     -5.627967    3.163235   -0.015259
  H     -4.349606    5.274005   -0.013169
  H     -1.883104    5.209106   -0.002961

----------------------------
CARTESIAN COORDINATES (A.U.)
----------------------------
  NO LB      ZA    FRAG     MASS         X           Y           Z
   0 C     6.0000    0    12.011    3.363353   -1.143008    0.009165
   1 C     6.0000    0    12.011    0.696633   -1.149408    0.011291
   2 C     6.0000    0    12.011   -0.696535    1.149605    0.011353
   3 C     6.0000    0    12.011    0.639159    3.491521    0.012855
   4 C     6.0000    0    12.011    3.326886    3.440720    0.017348
   5 C     6.0000    0    12.011    4.621721    1.236292    0.014857
   6 C     6.0000    0    12.011    4.711563   -3.479903    0.001026
   7 C     6.0000    0    12.011    3.331169   -5.790962    0.001534
   8 C     6.0000    0    12.011    0.686349   -5.741927    0.009138
   9 C     6.0000    0    12.011   -0.639061   -3.491325    0.012211
  10 C     6.0000    0    12.011   -3.326789   -3.440525    0.016109
  11 C     6.0000    0    12.011   -4.621624   -1.236096    0.013726
  12 C     6.0000    0    12.011   -3.363255    1.143205    0.008777
  13 C     6.0000    0    12.011   -4.711464    3.480102    0.000886
  14 C     6.0000    0    12.011   -3.331069    5.791160    0.001803
  15 C     6.0000    0    12.011   -0.686250    5.742124    0.009780
  16 C     6.0000    0    12.011    7.373337   -3.637708   -0.009981
  17 C     6.0000    0    12.011    8.594833   -5.915314   -0.019471
  18 C     6.0000    0    12.011    7.224144   -8.184379   -0.017691
  19 C     6.0000    0    12.011    4.648141   -8.115852   -0.007143
  20 C     6.0000    0    12.011   -7.373237    3.637910   -0.010202
  21 C     6.0000    0    12.011   -8.594732    5.915518   -0.019504
  22 C     6.0000    0    12.011   -7.224041    8.184582   -0.017479
  23 C     6.0000    0    12.011   -4.648039    8.116052   -0.006773
  24 H     1.0000    0     1.008    4.318536    5.226581    0.021953
  25 H     1.0000    0     1.008    6.658322    1.293400    0.018163
  26 H     1.0000    0     1.008   -0.336837   -7.510794    0.010741
  27 H     1.0000    0     1.008   -4.318440   -5.226387    0.020138
  28 H     1.0000    0     1.008   -6.658225   -1.293205    0.016495
  29 H     1.0000    0     1.008    0.336936    7.510990    0.011729
  30 H     1.0000    0     1.008    8.494569   -1.935913   -0.012435
  31 H     1.0000    0     1.008   10.635417   -5.977442   -0.028774
  32 H     1.0000    0     1.008    8.219668   -9.966221   -0.025187
  33 H     1.0000    0     1.008    3.558655   -9.843585   -0.006199
  34 H     1.0000    0     1.008   -8.494471    1.936117   -0.012812
  35 H     1.0000    0     1.008  -10.635315    5.977648   -0.028836
  36 H     1.0000    0     1.008   -8.219564    9.966425   -0.024886
  37 H     1.0000    0     1.008   -3.558551    9.843784   -0.005596

--------------------------------
INTERNAL COORDINATES (ANGSTROEM)
--------------------------------
 C      0   0   0     0.000000000000     0.00000000     0.00000000
 C      1   0   0     1.411171857261     0.00000000     0.00000000
 C      2   1   0     1.422530011820   121.07772851     0.00000000
 C      3   2   1     1.426685030918   119.08680961   359.91171119
 C      4   3   2     1.422540083582   118.61512057   359.92456707
 C      5   4   3     1.352884372972   121.51174800     0.14005796
 C      1   2   3     1.427682188236   119.84416232   180.19905142
 C      7   1   2     1.424507677237   119.16829076   359.84458888
 C      8   7   1     1.399824547915   119.78760278     0.00000000
 C      9   8   7     1.382148708874   121.55661231     0.10387298
 C     10   9   8     1.422540049552   121.57727213   179.90420825
 C     11  10   9     1.352884389448   121.51175149   180.14161983
 C      3   2   1     1.411171894803   121.07773243   179.88205171
 C     13   3   2     1.427682232184   119.84416509   180.19637219
 C     14  13   3     1.424507702452   119.16828876   359.85178738
 C      4   3   2     1.382148669936   119.80761037   179.92019525
 C      7   1   2     1.411035003272   123.37488515   179.78411893
 C     17   7   1     1.367657792057   121.59831997   180.05030004
 C     18  17   7     1.402813603965   120.65940691     0.00000000
 C     19  18  17     1.363655689947   119.61127138     0.00000000
 C     14  13   3     1.411035008134   123.37489999   179.79276866
 C     21  14  13     1.367657790023   121.59832611   180.05180808
 C     22  21  14     1.402813600360   120.65941062     0.00000000
 C     23  22  21     1.363655651325   119.61126537     0.00000000
 H      5   4   3     1.080959176763   117.95976783   180.11129706
 H      6   5   4     1.078147541443   118.82274727   179.99028468
 H      9   8   7     1.081361910392   118.98473683   180.04195090
 H     11  10   9     1.080959159680   117.95976663     0.11188307
 H     12  11  10     1.078147495180   118.82272652   179.98806503
 H     16   4   3     1.081361918028   119.45862158   179.97458351
 H     17   7   1     1.078441274329   119.98618199     0.00000000
 H     18  17   7     1.080342033811   119.94941778   179.96815016
 H     19  18  17     1.080103371036   119.67208602   180.00329314
 H     20  19  18     1.080875045497   120.71100657   179.98052810
 H     21  14  13     1.078441240771   119.98619089     0.00000000
 H     22  21  14     1.080341982982   119.94941489   179.96941127
 H     23  22  21     1.080103382521   119.67208758   180.00144772
 H     24  23  22     1.080875047758   120.71100561   179.98195672

---------------------------
INTERNAL COORDINATES (A.U.)
---------------------------
 C      0   0   0     0.000000000000     0.00000000     0.00000000
 C      1   0   0     2.666728338120     0.00000000     0.00000000
 C      2   1   0     2.688192139623   121.07772851     0.00000000
 C      3   2   1     2.696043987801   119.08680961   359.91171119
 C      4   3   2     2.688211172495   118.61512057   359.92456707
 C      5   4   3     2.556580955779   121.51174800     0.14005796
 C      1   2   3     2.697928342044   119.84416232   180.19905142
 C      7   1   2     2.691929385646   119.16829076   359.84458888
 C      8   7   1     2.645285031100   119.78760278     0.00000000
 C      9   8   7     2.611882536125   121.55661231     0.10387298
 C     10   9   8     2.688211108189   121.57727213   179.90420825
 C     11  10   9     2.556580986915   121.51175149   180.14161983
 C      3   2   1     2.666728409064   121.07773243   179.88205171
 C     13   3   2     2.697928425092   119.84416509   180.19637219
 C     14  13   3     2.691929433296   119.16828876   359.85178738
 C      4   3   2     2.611882462542   119.80761037   179.92019525
 C      7   1   2     2.666469721560   123.37488515   179.78411893
 C     17   7   1     2.584498671912   121.59831997   180.05030004
 C     18  17   7     2.650933528433   120.65940691     0.00000000
 C     19  18  17     2.576935794963   119.61127138     0.00000000
 C     14  13   3     2.666469730748   123.37489999   179.79276866
 C     21  14  13     2.584498668068   121.59832611   180.05180808
 C     22  21  14     2.650933521620   120.65941062     0.00000000
 C     23  22  21     2.576935721979   119.61126537     0.00000000
 H      5   4   3     2.042716806032   117.95976783   180.11129706
 H      6   5   4     2.037403585288   118.82274727   179.99028468
 H      9   8   7     2.043477862294   118.98473683   180.04195090
 H     11  10   9     2.042716773749   117.95976663     0.11188307
 H     12  11  10     2.037403497864   118.82272652   179.98806503
 H     16   4   3     2.043477876724   119.45862158   179.97458351
 H     17   7   1     2.037958659999   119.98618199     0.00000000
 H     18  17   7     2.041550574867   119.94941778   179.96815016
 H     19  18  17     2.041099567584   119.67208602   180.00329314
 H     20  19  18     2.042557820980   120.71100657   179.98052810
 H     21  14  13     2.037958596583   119.98619089     0.00000000
 H     22  21  14     2.041550478814   119.94941489   179.96941127
 H     23  22  21     2.041099589286   119.67208758   180.00144772
 H     24  23  22     2.042557825252   120.71100561   179.98195672

---------------------
BASIS SET INFORMATION
---------------------
There are 2 groups of distinct atoms

 Group   1 Type C   : 11s6p2d1f contracted to 5s3p2d1f pattern {62111/411/11/1}
 Group   2 Type H   : 5s1p contracted to 3s1p pattern {311/1}

Atom   0C    basis set group =>   1
Atom   1C    basis set group =>   1
Atom   2C    basis set group =>   1
Atom   3C    basis set group =>   1
Atom   4C    basis set group =>   1
Atom   5C    basis set group =>   1
Atom   6C    basis set group =>   1
Atom   7C    basis set group =>   1
Atom   8C    basis set group =>   1
Atom   9C    basis set group =>   1
Atom  10C    basis set group =>   1
Atom  11C    basis set group =>   1
Atom  12C    basis set group =>   1
Atom  13C    basis set group =>   1
Atom  14C    basis set group =>   1
Atom  15C    basis set group =>   1
Atom  16C    basis set group =>   1
Atom  17C    basis set group =>   1
Atom  18C    basis set group =>   1
Atom  19C    basis set group =>   1
Atom  20C    basis set group =>   1
Atom  21C    basis set group =>   1
Atom  22C    basis set group =>   1
Atom  23C    basis set group =>   1
Atom  24H    basis set group =>   2
Atom  25H    basis set group =>   2
Atom  26H    basis set group =>   2
Atom  27H    basis set group =>   2
Atom  28H    basis set group =>   2
Atom  29H    basis set group =>   2
Atom  30H    basis set group =>   2
Atom  31H    basis set group =>   2
Atom  32H    basis set group =>   2
Atom  33H    basis set group =>   2
Atom  34H    basis set group =>   2
Atom  35H    basis set group =>   2
Atom  36H    basis set group =>   2
Atom  37H    basis set group =>   2
---------------------------------
AUXILIARY/C BASIS SET INFORMATION
---------------------------------
There are 2 groups of distinct atoms

 Group   1 Type C   : 8s6p5d3f1g contracted to 8s6p4d3f1g pattern {11111111/111111/2111/111/1}
 Group   2 Type H   : 4s3p2d contracted to 4s2p1d pattern {1111/21/2}

Atom   0C    basis set group =>   1
Atom   1C    basis set group =>   1
Atom   2C    basis set group =>   1
Atom   3C    basis set group =>   1
Atom   4C    basis set group =>   1
Atom   5C    basis set group =>   1
Atom   6C    basis set group =>   1
Atom   7C    basis set group =>   1
Atom   8C    basis set group =>   1
Atom   9C    basis set group =>   1
Atom  10C    basis set group =>   1
Atom  11C    basis set group =>   1
Atom  12C    basis set group =>   1
Atom  13C    basis set group =>   1
Atom  14C    basis set group =>   1
Atom  15C    basis set group =>   1
Atom  16C    basis set group =>   1
Atom  17C    basis set group =>   1
Atom  18C    basis set group =>   1
Atom  19C    basis set group =>   1
Atom  20C    basis set group =>   1
Atom  21C    basis set group =>   1
Atom  22C    basis set group =>   1
Atom  23C    basis set group =>   1
Atom  24H    basis set group =>   2
Atom  25H    basis set group =>   2
Atom  26H    basis set group =>   2
Atom  27H    basis set group =>   2
Atom  28H    basis set group =>   2
Atom  29H    basis set group =>   2
Atom  30H    basis set group =>   2
Atom  31H    basis set group =>   2
Atom  32H    basis set group =>   2
Atom  33H    basis set group =>   2
Atom  34H    basis set group =>   2
Atom  35H    basis set group =>   2
Atom  36H    basis set group =>   2
Atom  37H    basis set group =>   2
----------------------------------
AUXILIARY/JK BASIS SET INFORMATION
----------------------------------
There are 2 groups of distinct atoms

 Group   1 Type C   : 14s10p6d2f1g contracted to 10s8p5d1f1g pattern {5111111111/31111111/21111/2/1}
 Group   2 Type H   : 4s2p2d contracted to 2s2p2d pattern {31/11/11}

Atom   0C    basis set group =>   1
Atom   1C    basis set group =>   1
Atom   2C    basis set group =>   1
Atom   3C    basis set group =>   1
Atom   4C    basis set group =>   1
Atom   5C    basis set group =>   1
Atom   6C    basis set group =>   1
Atom   7C    basis set group =>   1
Atom   8C    basis set group =>   1
Atom   9C    basis set group =>   1
Atom  10C    basis set group =>   1
Atom  11C    basis set group =>   1
Atom  12C    basis set group =>   1
Atom  13C    basis set group =>   1
Atom  14C    basis set group =>   1
Atom  15C    basis set group =>   1
Atom  16C    basis set group =>   1
Atom  17C    basis set group =>   1
Atom  18C    basis set group =>   1
Atom  19C    basis set group =>   1
Atom  20C    basis set group =>   1
Atom  21C    basis set group =>   1
Atom  22C    basis set group =>   1
Atom  23C    basis set group =>   1
Atom  24H    basis set group =>   2
Atom  25H    basis set group =>   2
Atom  26H    basis set group =>   2
Atom  27H    basis set group =>   2
Atom  28H    basis set group =>   2
Atom  29H    basis set group =>   2
Atom  30H    basis set group =>   2
Atom  31H    basis set group =>   2
Atom  32H    basis set group =>   2
Atom  33H    basis set group =>   2
Atom  34H    basis set group =>   2
Atom  35H    basis set group =>   2
Atom  36H    basis set group =>   2
Atom  37H    basis set group =>   2


           ************************************************************
           *        Program running with 104 parallel MPI-processes   *
           *              working on a common directory               *
           ************************************************************
------------------------------------------------------------------------------
                             ORCA STARTUP CALCULATIONS
                           -- RI-GTO INTEGRALS CHOSEN --
------------------------------------------------------------------------------
------------------------------------------------------------------------------
                   ___                                                        
                  /   \      - P O W E R E D   B Y -                         
                 /     \                                                     
                 |  |  |   _    _      __       _____    __    __             
                 |  |  |  | |  | |    /  \     |  _  \  |  |  /  |          
                  \  \/   | |  | |   /    \    | | | |  |  | /  /          
                 / \  \   | |__| |  /  /\  \   | |_| |  |  |/  /          
                |  |  |   |  __  | /  /__\  \  |    /   |      \           
                |  |  |   | |  | | |   __   |  |    \   |  |\   \          
                \     /   | |  | | |  |  |  |  | |\  \  |  | \   \       
                 \___/    |_|  |_| |__|  |__|  |_| \__\ |__|  \__/        
                                                                              
                      - O R C A' S   B I G   F R I E N D -                    
                                      &                                       
                       - I N T E G R A L  F E E D E R -                       
                                                                              
 v1 FN, 2020, v2 2021, v3 2022-2024                                           
------------------------------------------------------------------------------


----------------------
SHARK INTEGRAL PACKAGE
----------------------

Number of atoms                             ...     38
Number of basis functions                   ...    828
Number of shells                            ...    320
Maximum angular momentum                    ...      3
Integral batch strategy                     ... SHARK/LIBINT Hybrid
RI-J (if used) integral strategy            ... SPLIT-RIJ (Revised 2003 algorithm where possible)
Printlevel                                  ...      1
Contraction scheme used                     ... SEGMENTED contraction
Prescreening option                         ... SCHWARTZ
   Thresh                                   ... 1.000e-10
   Tcut                                     ... 1.000e-11
   Tpresel                                  ... 1.000e-11 
Coulomb Range Separation                    ... NOT USED
Exchange Range Separation                   ... NOT USED
Multipole approximations                    ... NOT USED
Finite Nucleus Model                        ... NOT USED
CABS basis                                  ... NOT available
Auxiliary Coulomb fitting basis             ... NOT available
Auxiliary J/K fitting basis                 ... AVAILABLE
   # of basis functions in Aux-JK           ...   2052
   # of shells in Aux-JK                    ...    684
   Maximum angular momentum in Aux-JK       ...      4
Auxiliary Correlation fitting basis         ... AVAILABLE
   # of basis functions in Aux-C            ...   2034
   # of shells in Aux-C                     ...    626
   Maximum angular momentum in Aux-C        ...      4
Auxiliary 'external' fitting basis          ... NOT available

Checking pre-screening integrals            ... done (  0.0 sec) Dimension = 320
Check shell pair data                       ... done (  0.0 sec)
Shell pair information
Shell pair cut-off parameter TPreSel        ...   1.0e-11
Total number of shell pairs                 ...     51360
Shell pairs after pre-screening             ...     35422
Total number of primitive shell pairs       ...    159900
Primitive shell pairs kept                  ...     73597
          la=0 lb=0:   8515 shell pairs
          la=1 lb=0:  10026 shell pairs
          la=1 lb=1:   2915 shell pairs
          la=2 lb=0:   5240 shell pairs
          la=2 lb=1:   3060 shell pairs
          la=2 lb=2:    825 shell pairs
          la=3 lb=0:   2442 shell pairs
          la=3 lb=1:   1446 shell pairs
          la=3 lb=2:    760 shell pairs
          la=3 lb=3:    193 shell pairs

Calculating one electron integrals          ... done (  0.8 sec)
Calculating RI/JK V-Matrix + Cholesky decomp... done (  0.5 sec)
Calculating RI/C V-Matrix + Cholesky decomp.... done (  0.4 sec)
Calculating Nuclear repulsion               ... done (  0.0 sec) ENN=   1785.753181570586 Eh

Diagonalization of the overlap matrix:
Smallest eigenvalue                        ... 2.850e-06
Time for diagonalization                   ...    0.109 sec
Threshold for overlap eigenvalues          ... 1.000e-07
Number of eigenvalues below threshold      ... 0
Time for construction of square roots      ...    0.051 sec
Total time needed                          ...    0.184 sec

-------------------
DFT GRID GENERATION
-------------------

General Integration Accuracy     IntAcc      ... 4.959
Radial Grid Type                 RadialGrid  ... OptM3 with GC (2021)
Angular Grid (max. ang.)         AngularGrid ... 6 (Lebedev-590)
Angular grid pruning method      GridPruning ... 4 (adaptive)
Weight generation scheme         WeightScheme... mBecke (2022)
Basis function cutoff            BFCut       ... 1.0000e-10
Integration weight cutoff        WCut        ... 1.0000e-14
Partially contracted basis set               ... off
Rotationally invariant grid construction     ... off
Angular grids for H and He will be reduced by one unit

Total number of grid points                  ...   457346
Total number of batches                      ...     7168
Average number of points per batch           ...       63
Average number of grid points per atom       ...    12035
Initializing property integral containers    ... done (  0.0 sec)

SHARK setup successfully completed in   6.7 seconds

Maximum memory used throughout the entire STARTUP-calculation: 117.7 MB


           ************************************************************
           *        Program running with 104 parallel MPI-processes   *
           *              working on a common directory               *
           ************************************************************
-------------------------------------------------------------------------------
                                 ORCA GUESS
                   Start orbitals & Density for SCF / CASSCF
-------------------------------------------------------------------------------

------------
SCF SETTINGS
------------
Hamiltonian:
 Density Functional     Method          .... DFT(GTOs)
 Exchange Functional    Exchange        .... PBE
   PBE kappa parameter   XKappa         ....  0.804000
   PBE mue parameter    XMuePBE         ....  0.219520
 Correlation Functional Correlation     .... P86
 LDA part of GGA corr.  LDAOpt          .... VWN-5
 Gradients option       PostSCFGGA      .... off
 Hybrid DFT is turned on
   Fraction HF Exchange ScalHFX         ....  0.690000
   Scaling of DF-GGA-X  ScalDFX         ....  0.310000
   Scaling of DF-GGA-C  ScalDFC         ....  0.403800
   Scaling of DF-LDA-C  ScalLDAC        ....  0.403800
   Perturbative correction              ....  1.000000
 RI-approximation to the Coulomb term is turned on
   Number of AuxJK basis functions      .... 2052
   RI-JK (J+K treated both via RI)      .... on


General Settings:
 Integral files         IntName         .... compas3x_hc_c24h14_0pent_9_tz_rijk
 Hartree-Fock type      HFTyp           .... RHF
 Total Charge           Charge          ....    0
 Multiplicity           Mult            ....    1
 Number of Electrons    NEL             ....  158
 Basis Dimension        Dim             ....  828
 Nuclear Repulsion      ENuc            ....   1785.7531815706 Eh

Convergence Acceleration:
 AO-DIIS                CNVDIIS         .... on
   Start iteration      DIISMaxIt       ....    12
   Startup error        DIISStart       ....  0.200000
   # of expansion vecs  DIISMaxEq       ....     5
   Bias factor          DIISBfac        ....   1.050
   Max. coefficient     DIISMaxC        ....  10.000
 MO-DIIS                CNVKDIIS        .... off
 Trust-Rad. Augm. Hess. CNVTRAH         .... auto
   Auto Start mean grad. ratio tolernc. ....  1.125000
   Auto Start start iteration           ....    50
   Auto Start num. interpolation iter.  ....    10
   Max. Number of Micro iterations      ....    24
   Max. Number of Macro iterations      .... Maxiter - #DIIS iter
   Number of Davidson start vectors     ....     2
   Converg. threshold    (grad. norm)   ....   5.000e-05
   Grad. Scal. Fac. for Micro threshold ....   0.100
   Minimum threshold for Micro iter.    ....   1.000e-02
   NR start threshold (gradient norm)   ....   1.000e-04
   Initial trust radius                 ....   0.400
   Minimum AH scaling param. (alpha)    ....   1.000
   Maximum AH scaling param. (alpha)    .... 1000.000
   Quad. conv. algorithm                .... NR
   White noise on init. David. guess    .... on
   Maximum white noise                  ....   0.010
   Pseudo random numbers                .... off
   Inactive MOs                         .... canonical
   Orbital update algorithm             .... Taylor
   Preconditioner                       .... Diag
   Full preconditioner red. dimension   ....   250
 SOSCF                  CNVSOSCF        .... on
   Start iteration      SOSCFMaxIt      ....   150
   Startup grad/error   SOSCFStart      ....  0.003300
   Hessian update       SOSCFHessUp     .... L-BFGS
 Level Shifting         CNVShift        .... on
   Level shift para.    LevelShift      ....    0.2500
   Turn off err/grad.   ShiftErr        ....    0.0010
 Zerner damping         CNVZerner       .... off
 Static damping         CNVDamp         .... on
   Fraction old density DampFac         ....    0.7000
   Max. Damping (<1)    DampMax         ....    0.9800
   Min. Damping (>=0)   DampMin         ....    0.0000
   Turn off err/grad.   DampErr         ....    0.1000

SCF Procedure:
 Maximum # iterations   MaxIter         ....   125
 SCF integral mode      SCFMode         .... Direct
   Integral package                     .... SHARK and LIBINT hybrid scheme
 Reset frequency        DirectResetFreq ....    20
 Integral Threshold     Thresh          ....  1.000e-10 Eh
 Primitive CutOff       TCut            ....  1.000e-11 Eh

Convergence Tolerance:
 Convergence Check Mode ConvCheckMode   .... Total+1el-Energy
 Convergence forced     ConvForced      .... 0
 Energy Change          TolE            ....  1.000e-06 Eh
 1-El. energy change                    ....  1.000e-03 Eh
 Orbital Gradient       TolG            ....  5.000e-05
 Orbital Rotation angle TolX            ....  5.000e-05
 DIIS Error             TolErr          ....  1.000e-06

------------------------------
INITIAL GUESS: MODEL POTENTIAL
------------------------------
Loading Hartree-Fock densities                     ... done
Calculating cut-offs                               ... done
Initializing the effective Hamiltonian             ... done
Setting up the integral package (SHARK)            ... done
Starting the Coulomb interaction                   ... done (   0.1 sec)
Making the grid                                    ... done (   0.3 sec)
Mapping shells                                     ... done
Starting the XC term evaluation                    ... done (   0.1 sec)
  promolecular density results
     # of electrons  =    157.980883016
     EX              =   -127.045732316
     EC              =      0.200899531
     EX+EC           =   -126.844832786
Transforming the Hamiltonian                       ... done (   0.1 sec)
Diagonalizing the Hamiltonian                      ... done (   0.1 sec)
Back transforming the eigenvectors                 ... done (   0.0 sec)
Now organizing SCF variables                       ... done
                      ------------------
                      INITIAL GUESS DONE (   0.9 sec)
                      ------------------
             **** ENERGY FILE WAS UPDATED (compas3x_hc_c24h14_0pent_9_tz_rijk.en.tmp) ****
Finished Guess after  15.9 sec
Maximum memory used throughout the entire GUESS-calculation: 67.3 MB


           ************************************************************
           *        Program running with 104 parallel MPI-processes   *
           *              working on a common directory               *
           ************************************************************

-------------------------------------------------------------------------------------------
                                      ORCA LEAN-SCF
                              memory conserving SCF solver
-------------------------------------------------------------------------------------------

----------------------------------------D-I-I-S--------------------------------------------
Iteration    Energy (Eh)           Delta-E    RMSDP     MaxDP     DIISErr   Damp  Time(sec)
-------------------------------------------------------------------------------------------
    1    -919.0126039590502387     0.00e+00  9.43e-04  3.52e-02  1.48e-01  0.700   3.9
    2    -918.8154833088485702     1.97e-01  9.92e-04  4.79e-02  1.34e-01  0.700   4.1
                               ***Turning on AO-DIIS***
    3    -918.9258629829971596    -1.10e-01  8.92e-04  4.26e-02  7.93e-02  0.700   3.8
    4    -919.1435346588125412    -2.18e-01  1.51e-03  5.76e-02  3.28e-02  0.000   3.8
    5    -919.4987982027644193    -3.55e-01  5.27e-04  2.65e-02  3.52e-02  0.000   3.6
    6    -919.5134876507170247    -1.47e-02  2.91e-04  1.40e-02  1.70e-02  0.000   3.9
    7    -919.5172241041216239    -3.74e-03  9.96e-05  5.53e-03  5.54e-03  0.000   3.9
                              *** Initializing SOSCF ***
---------------------------------------S-O-S-C-F--------------------------------------
Iteration    Energy (Eh)           Delta-E    RMSDP     MaxDP     MaxGrad    Time(sec)
--------------------------------------------------------------------------------------
    8    -919.5176668392521151    -4.43e-04  3.05e-05  1.20e-03  1.41e-03     4.2
    9    -919.5176986301100897    -3.18e-05  2.33e-05  9.07e-04  2.52e-04     3.9
   10    -919.5177032009271443    -4.57e-06  1.44e-05  6.00e-04  1.53e-04     3.5
   11    -919.5177040963519630    -8.95e-07  5.95e-06  2.48e-04  8.08e-05     3.5
                 **** Energy Check signals convergence ****

               *****************************************************
               *                     SUCCESS                       *
               *           SCF CONVERGED AFTER  11 CYCLES          *
               *****************************************************

             **** ENERGY FILE WAS UPDATED (compas3x_hc_c24h14_0pent_9_tz_rijk.en.tmp) ****

----------------
TOTAL SCF ENERGY
----------------

Total Energy       :       -919.51770409635196 Eh          -25021.34879 eV

Components:
Nuclear Repulsion  :       1785.75318157058587 Eh           48592.81448 eV
Electronic Energy  :      -2705.27088566693783 Eh          -73614.16327 eV
One Electron Energy:      -4791.97582372895977 Eh         -130396.29138 eV
Two Electron Energy:       2086.70493806202194 Eh           56782.12811 eV

Virial components:
Potential Energy   :      -1837.07655203237982 Eh          -49989.39439 eV
Kinetic Energy     :        917.55884793602797 Eh           24968.04560 eV
Virial Ratio       :          2.00213485616179

DFT components:
N(Alpha)           :       79.000016870718 electrons
N(Beta)            :       79.000016870718 electrons
N(Total)           :      158.000033741435 electrons
E(X)               :      -40.065874850495 Eh       
E(C)               :       -2.355297127542 Eh       
E(XC)              :      -42.421171978036 Eh       

---------------
SCF CONVERGENCE
---------------

  Last Energy change         ...    8.9542e-07  Tolerance :   1.0000e-06
  Last MAX-Density change    ...    2.4831e-04  Tolerance :   1.0000e-05
  Last RMS-Density change    ...    5.9533e-06  Tolerance :   1.0000e-06
  Last DIIS Error            ...    1.4075e-03  Tolerance :   1.0000e-06
  Last Orbital Gradient      ...    8.0842e-05  Tolerance :   5.0000e-05
  Last Orbital Rotation      ...    2.0580e-04  Tolerance :   5.0000e-05


----------------
ORBITAL ENERGIES
----------------

  NO   OCC          E(Eh)            E(eV) 
   0   2.0000     -10.835498      -294.8489 
   1   2.0000     -10.835485      -294.8485 
   2   2.0000     -10.833489      -294.7942 
   3   2.0000     -10.833482      -294.7940 
   4   2.0000     -10.832837      -294.7765 
   5   2.0000     -10.832059      -294.7553 
   6   2.0000     -10.829980      -294.6987 
   7   2.0000     -10.829972      -294.6985 
   8   2.0000     -10.829932      -294.6974 
   9   2.0000     -10.829918      -294.6971 
  10   2.0000     -10.823189      -294.5140 
  11   2.0000     -10.823187      -294.5139 
  12   2.0000     -10.821904      -294.4790 
  13   2.0000     -10.821904      -294.4790 
  14   2.0000     -10.821594      -294.4706 
  15   2.0000     -10.821593      -294.4705 
  16   2.0000     -10.821519      -294.4685 
  17   2.0000     -10.821517      -294.4685 
  18   2.0000     -10.821229      -294.4606 
  19   2.0000     -10.821228      -294.4606 
  20   2.0000     -10.820132      -294.4308 
  21   2.0000     -10.820132      -294.4308 
  22   2.0000     -10.819195      -294.4053 
  23   2.0000     -10.819195      -294.4053 
  24   2.0000      -1.096885       -29.8478 
  25   2.0000      -1.070120       -29.1194 
  26   2.0000      -1.043456       -28.3939 
  27   2.0000      -1.023833       -27.8599 
  28   2.0000      -1.000126       -27.2148 
  29   2.0000      -0.971068       -26.4241 
  30   2.0000      -0.946580       -25.7578 
  31   2.0000      -0.938061       -25.5259 
  32   2.0000      -0.921927       -25.0869 
  33   2.0000      -0.903115       -24.5750 
  34   2.0000      -0.896268       -24.3887 
  35   2.0000      -0.858714       -23.3668 
  36   2.0000      -0.802497       -21.8371 
  37   2.0000      -0.784833       -21.3564 
  38   2.0000      -0.778262       -21.1776 
  39   2.0000      -0.759776       -20.6746 
  40   2.0000      -0.741104       -20.1665 
  41   2.0000      -0.736600       -20.0439 
  42   2.0000      -0.698445       -19.0056 
  43   2.0000      -0.662075       -18.0160 
  44   2.0000      -0.661957       -18.0128 
  45   2.0000      -0.642742       -17.4899 
  46   2.0000      -0.638566       -17.3763 
  47   2.0000      -0.609540       -16.5864 
  48   2.0000      -0.592842       -16.1320 
  49   2.0000      -0.590432       -16.0665 
  50   2.0000      -0.583607       -15.8808 
  51   2.0000      -0.564563       -15.3625 
  52   2.0000      -0.551582       -15.0093 
  53   2.0000      -0.543867       -14.7994 
  54   2.0000      -0.542956       -14.7746 
  55   2.0000      -0.530602       -14.4384 
  56   2.0000      -0.521030       -14.1780 
  57   2.0000      -0.518616       -14.1123 
  58   2.0000      -0.510368       -13.8878 
  59   2.0000      -0.500650       -13.6234 
  60   2.0000      -0.497470       -13.5369 
  61   2.0000      -0.488971       -13.3056 
  62   2.0000      -0.488312       -13.2876 
  63   2.0000      -0.484408       -13.1814 
  64   2.0000      -0.453682       -12.3453 
  65   2.0000      -0.452597       -12.3158 
  66   2.0000      -0.450170       -12.2497 
  67   2.0000      -0.434024       -11.8104 
  68   2.0000      -0.429949       -11.6995 
  69   2.0000      -0.421661       -11.4740 
  70   2.0000      -0.404717       -11.0129 
  71   2.0000      -0.398499       -10.8437 
  72   2.0000      -0.372470       -10.1354 
  73   2.0000      -0.334875        -9.1124 
  74   2.0000      -0.332986        -9.0610 
  75   2.0000      -0.316295        -8.6068 
  76   2.0000      -0.286236        -7.7889 
  77   2.0000      -0.272296        -7.4096 
  78   2.0000      -0.218904        -5.9567 
  79   0.0000      -0.017695        -0.4815 
  80   0.0000       0.028882         0.7859 
  81   0.0000       0.039224         1.0673 
  82   0.0000       0.066312         1.8044 
  83   0.0000       0.083914         2.2834 
  84   0.0000       0.090577         2.4647 
  85   0.0000       0.114552         3.1171 
  86   0.0000       0.115335         3.1384 
  87   0.0000       0.116623         3.1735 
  88   0.0000       0.126690         3.4474 
  89   0.0000       0.127832         3.4785 
*Only the first 10 virtual orbitals were printed.
-------
TIMINGS
-------

Total SCF time: 0 days 0 hours 0 min 57 sec 

Total time                  ....      57.394 sec
Sum of individual times     ....      57.008 sec  ( 99.3%)

SCF preparation             ....      14.702 sec  ( 25.6%)
Fock matrix formation       ....      33.573 sec  ( 58.5%)
  Startup                   ....       1.331 sec  (  4.0% of F)
  RI-JK                     ....      24.818 sec  ( 73.9% of F)
  XC integration            ....       5.102 sec  ( 15.2% of F)
    XC Preparation          ....       0.000 sec  (  0.0% of XC)
    Basis function eval.    ....       0.430 sec  (  8.4% of XC)
    Density eval.           ....       0.574 sec  ( 11.3% of XC)
    XC-Functional eval.     ....       0.030 sec  (  0.6% of XC)
    XC-Potential eval.      ....       0.838 sec  ( 16.4% of XC)
Diagonalization             ....       0.000 sec  (  0.0%)
Density matrix formation    ....       1.515 sec  (  2.6%)
Total Energy calculation    ....       0.955 sec  (  1.7%)
Population analysis         ....       0.000 sec  (  0.0%)
Orbital Transformation      ....       0.713 sec  (  1.2%)
Orbital Orthonormalization  ....       0.000 sec  (  0.0%)
DIIS solution               ....       4.339 sec  (  7.6%)
SOSCF solution              ....       1.146 sec  (  2.0%)
Finished LeanSCF after  57.7 sec

Maximum memory used throughout the entire LEANSCF-calculation: 150.7 MB


           ************************************************************
           *        Program running with 104 parallel MPI-processes   *
           *              working on a common directory               *
           ************************************************************

------------------------------------------------------------------------------
                                ORCA  MP2 
------------------------------------------------------------------------------


-------------
RI-MP2 ENERGY
-------------
Dimension of the orbital basis            ...  828
Dimension of the AuxC basis               ... 2034
Memory devoted to MP2                     ... 4096 MB   
Data format for matrix containers         ... DOUBLE
Compression type for matrix containers    ... UNCOMPRESSED
Scaling for aa/bb pairs                   ...   5.710e-02
Scaling for ab pairs                      ...   5.979e-01
Overall scaling of the MP2 energy         ...   1.000e+00

-----------------------
SHARK RI TRANSFORMATION
-----------------------

Number of basis functions                ...    828
Number of aux functions                  ...   2034
Number of operators                      ...      1
Generation of IJK                        ... NO
Generation of IAK                        ... YES
Generation of ABK                        ... NO
Orbital Range Operator  0:    0-  78 to   79- 827

Aux basis identifier                     ...   AUXC
Contraction scheme used                  ... SEGMENTED
Do orthogonalization                     ... YES
All operator combinations                ... NO
Transpose (ia|K)                         ... NO
Integral generator used                  ... LIBINT
Starting integral generation + trafo... 
Half trafo (segmented) done. Total time =  0.9 sec. integrals=  0.2 sec trafo=  0.3 sec
Integral generation and half transformation done (  0.9 sec)

Reading or making V^(-1/2)          ... done (  0.1 sec)
Sorting IAK integrals               ... done (  1.6 sec)

SHARK RI integral transformation done. Total time =  2.6 sec.

Opening buffers                              ... done

Starting loop over batches of integrals:

Operator 0  - window                       ... (  0- 78)x( 79-827)
Operator 0  - Memory available             ...  4096 MB
Operator 0  - Memory needed per MO         ...  11.6 MB
Operator 0  - Number of orbitals per batch ... 1
Operator 0  - Number of batches            ... 1

OPERATOR  0   PASS   0:  MOs     0 ...    0 +    1 ...    1 +    2 ...    2 +    3 ...    3
                            +    4 ...    4 +    5 ...    5 +    6 ...    6 +    7 ...    7
                            +    8 ...    8 +    9 ...    9 +   10 ...   10 +   11 ...   11
                            +   12 ...   12 +   13 ...   13 +   14 ...   14 +   15 ...   15
                            +   16 ...   16 +   17 ...   17 +   18 ...   18 +   19 ...   19
                            +   20 ...   20 +   21 ...   21 +   22 ...   22 +   23 ...   23
                            +   24 ...   24 +   25 ...   25 +   26 ...   26 +   27 ...   27
                            +   28 ...   28 +   29 ...   29 +   30 ...   30 +   31 ...   31
                            +   32 ...   32 +   33 ...   33 +   34 ...   34 +   35 ...   35
                            +   36 ...   36 +   37 ...   37 +   38 ...   38 +   39 ...   39
                            +   40 ...   40 +   41 ...   41 +   42 ...   42 +   43 ...   43
                            +   44 ...   44 +   45 ...   45 +   46 ...   46 +   47 ...   47
                            +   48 ...   48 +   49 ...   49 +   50 ...   50 +   51 ...   51
                            +   52 ...   52 +   53 ...   53 +   54 ...   54 +   55 ...   55
                            +   56 ...   56 +   57 ...   57 +   58 ...   58 +   59 ...   59
                            +   60 ...   60 +   61 ...   61 +   62 ...   62 +   63 ...   63
                            +   64 ...   64 +   65 ...   65 +   66 ...   66 +   67 ...   67
                            +   68 ...   68 +   69 ...   69 +   70 ...   70 +   71 ...   71
                            +   72 ...   72 +   73 ...   73 +   74 ...   74 +   75 ...   75
                            +   76 ...   76 +   77 ...   77 +   78 ...   78
  Reading integrals       ... ok
Time spent in pair loops =     4.868 sec

-----------------------------------------------
 RI-MP2 CORRELATION ENERGY:     -2.138137128 Eh
-----------------------------------------------


-------
TIMINGS
-------

Total time                :    8.442 sec
Integral trafo            :    2.702 sec ( 32.0%)
I/O of integrals          :    0.003 sec (  0.0%)
K(i,j) operators          :    0.045 sec (  0.5%)
T(i,j) pair energies      :    0.006 sec (  0.1%)
V**(-1/2)                 :    0.869 sec ( 10.3%)


---------------------------------------
MP2 TOTAL ENERGY:     -921.655841224 Eh
---------------------------------------

Maximum memory used throughout the entire MP2-calculation: 110.0 MB


-------------------------------------------------------------------------------
                          DFT DISPERSION CORRECTION                            
                                                                               
                                DFTD4 V3.4.0                                   
-------------------------------------------------------------------------------
The REV-DSD-PBEP86-2021 functional is recognized
A user input s6-coefficient scaling factor has been recognized
A user input a1-coefficient scaling factor has been recognized
A user input s8-coefficient scaling factor has been recognized
A user input a2-coefficient scaling factor has been recognized
A user input s9-coefficient scaling factor has been recognized
Active option DFTDOPT                   ...         5   

-------------------------   ----------------
Dispersion correction           -0.038152316
-------------------------   ----------------


-------------------------   --------------------
FINAL SINGLE POINT ENERGY      -921.693993539889
-------------------------   --------------------



           ************************************************************
           *        Program running with 104 parallel MPI-processes   *
           *              working on a common directory               *
           ************************************************************

------------------------------------------------------------------------------
                              ORCA PROPERTY CALCULATIONS
------------------------------------------------------------------------------

GBWName                                 ... compas3x_hc_c24h14_0pent_9_tz_rijk.gbw
Number of atoms                         ...     38
Number of basis functions               ...    828
Max core memory                         ...   1024 MB

Electric properties:
Dipole moment                           ... YES
Quadrupole moment                       ...  NO
Static polarizability (Dipole/Dipole)   ...  NO
Static polarizability (Dipole/Quad.)    ...  NO
Static polarizability (Quad./Quad.)     ...  NO
Static polarizability (Velocity)        ...  NO

Atomic electric properties:
Dipole moment                           ...  NO
Quadrupole moment                       ...  NO
Static polarizability                   ...  NO

Choice of electric origin               ... Center of mass
Position of electric origin             ...     0.000050     0.000099     0.001581

General magnetic properties:
Magnetizability                         ...  NO

EPR properties:
g-Tensor (aka g-matrix)                 ...  NO
Zero-Field splitting spin-orbit         ...  NO
Zero-field splitting spin-spin          ...  NO
Hyperfine couplings                     ...  NO (   0 nuclei)
Quadrupole couplings                    ...  NO (   0 nuclei)
Contact density                         ...  NO (   0 nuclei)

NMR properties:
Chemical shifts                         ...  NO (   0 nuclei)
Spin-rotation constants                 ...  NO (   0 nuclei)
Spin-spin couplings                     ...  NO (   0 nuclei,    0 pairs)

Choice of magnetic origin               ... GIAO
Position of magnetic origin             ...     0.000000     0.000000     0.000000

Properties with geometric perturbations:
SCF Hessian                             ...  NO
IR spectrum                             ...  NO
VCD spectrum                            ...  NO
X-ray spectroscopy properties:
SCF XES/XAS/RIXS spectra                ...  NO


-------------
DIPOLE MOMENT
-------------

Method             : SCF
Type of density    : Electron Density
Multiplicity       :   1
Irrep              :   0
Energy             :  -919.5177040963519630 Eh
Relativity type    : 
Basis              : AO
                                X                 Y                 Z
Electronic contribution:     -0.000002076      -0.000003114       0.030907841
Nuclear contribution   :      0.000001960       0.000003603      -0.033578653
                        -----------------------------------------
Total Dipole Moment    :     -0.000000116       0.000000489      -0.002670811
                        -----------------------------------------
Magnitude (a.u.)       :      0.002670812
Magnitude (Debye)      :      0.006788663



--------------------
Rotational spectrum 
--------------------
 
Rotational constants in cm-1:             0.025495             0.004778             0.004024 
Rotational constants in MHz :           764.318412           143.227290           120.624168 

Dipole components along the rotational axes: 
x,y,z [a.u.] :    -0.000000    -0.000000    -0.002671 
x,y,z [Debye]:    -0.000001    -0.000000    -0.006789 

 

Dipole moment calculation done in   0.1 sec 

Maximum memory used throughout the entire PROP-calculation: 68.8 MB

--------------------------------
SUGGESTED CITATIONS FOR THIS RUN
--------------------------------

Below you find a list of papers that are relevant to this ORCA run
We neither can nor want to force you to cite these papers, but we appreciate if you do
You receive ORCA, which is the product of decades of hard work by many enthusiastic individuals, for free
The only thing we kindly ask in return is that you cite our papers,
We deeply appreciate it, if you show your appreciation for ORCA by not just citing the generic ORCA reference.

Please note that relegating all ORCA citations to the supporting information does *not* help us.
SI sections are not indexed - citations you put there will not count into any citation statistics
But we need these citations in order to attract the funding resources that allow us to do what we are doing

Therefore, if you are a happy ORCA user, please consider citing a few of the papers listed below in the main body of your paper

In addition to the list printed below, the program has created the file compas3x_hc_c24h14_0pent_9_tz_rijk.bibtex that contains the list in bibtex format
You can import this file easily into all common literature databanks and citation aid programs


List of essential papers. We consider these as the minimum necessary citations

  1. Neese,F.
     Software update: the ORCA program system, version 5.0
     WIRES Comput. Molec. Sci., 2022 12(1)e1606
     doi.org/10.1002/wcms.1606

List of papers to cite with high priority. The work reported in these papers was absolutely
necessary for this run to complete.
Our perspective: the developers of density functionals and basis sets usually get cited in chemistry papers
Good! But without the algorithms to do something with them, the functionals or basis sets would not do anything.
Hence, in our opinion, the algorithm design and method developments papers are equally worthy of getting cited

  1. Neese,F.
     An improvement of the resolution of the identity approximation for the formation of the Coulomb matrix
     J. Comp. Chem., 2003 24(14)1740-1747
     doi.org/10.1002/jcc.10318
  2. Kossmann,S.; Neese,F.
     Comparison of two efficient approximate Hartee-Fock approaches
     Chem. Phys. Lett., 2009 481 240-243
     doi.org/10.1016/j.cplett.2009.09.073
  3. Neese,F.
     The SHARK Integral Generation and Digestion System
     J. Comp. Chem., 2022  1-16
     doi.org/10.1002/jcc.26942
  4. Caldeweyher,E.; Bannwarth,C.; Grimme,S.
     Extension of the D3 dispersion coefficient model
     J. Chem. Phys., 2017 147 034112
     doi.org/10.1063/1.4993215
  5. Caldeweyher,E.; Ehlert,S.; Hansen,A.; Neugebauer,H.; Spicher,S.; Bannwarth,C.; Grimme,S.
     A generally applicable atomic-charge dependent London dispersion correction
     J. Chem. Phys., 2019 150 154122
     doi.org/10.1063/1.5090222
  6. Caldeweyher,E.; Mewes,J.; Ehlert,S.; Grimme,S.
     Extension and evaluation of the D4 London-dispersion model for periodic systems
     Phys. Chem. Chem. Phys., 2020 22(16)8499-8512
     doi.org/10.1039/D0CP00502A
  7. Wittmann,L.; Gordiy,I.; Friede,M.; Helmich-Paris,B.; Grimme,S.; Hansen,A.; Bursch,M.
     Extension of the D3 and D4 London Dispersion Corrections to the full Actinides Series
     Phys. Chem. Chem. Phys., 2024 26(32)21379-21394
     doi.org/https://doi.org/10.1039/D4CP01514B 

List of suggested additional citations. These are papers that are important in the 'surrounding' of 
of this run, or papers that preceded the highly important papers. If you like your results we are grateful for a citation.

  1. Neese,F.
     The ORCA program system
     WIRES Comput. Molec. Sci., 2012 2(1)73-78
     doi.org/10.1002/wcms.81
  2. Neese,F.
     Software update: the ORCA program system, version 4.0
     WIRES Comput. Molec. Sci., 2018 8(1)1-6
     doi.org/10.1002/wcms.1327
  3. Neese,F.; Wennmohs,F.; Becker,U.; Riplinger,C.
     The ORCA quantum chemistry program package
     J. Chem. Phys., 2020 152 Art. No. L224108
     doi.org/10.1063/5.0004608

List of optional additional citations

  1. Neese,F.
     Approximate second-order SCF convergence for spin unrestricted wavefunctions
     Chem. Phys. Lett., 2000 325(1-3)93-98
     doi.org/10.1016/s0009-2614(00)00662-x

Timings for individual modules:

Sum of individual times          ...      140.398 sec (=   2.340 min)
Startup calculation              ...       22.439 sec (=   0.374 min)  16.0 %
SCF iterations                   ...       76.638 sec (=   1.277 min)  54.6 %
Property calculations            ...       16.394 sec (=   0.273 min)  11.7 %
MP2 module                       ...       24.928 sec (=   0.415 min)  17.8 %
                             ****ORCA TERMINATED NORMALLY****
TOTAL RUN TIME: 0 days 0 hours 2 minutes 47 seconds 226 msec
