
                                 *****************
                                 * O   R   C   A *
                                 *****************

                                            #,                                       
                                            ###                                      
                                            ####                                     
                                            #####                                    
                                            ######                                   
                                           ########,                                 
                                     ,,################,,,,,                         
                               ,,#################################,,                 
                          ,,##########################################,,             
                       ,#########################################, ''#####,          
                    ,#############################################,,   '####,        
                  ,##################################################,,,,####,       
                ,###########''''           ''''###############################       
              ,#####''   ,,,,##########,,,,          '''####'''          '####       
            ,##' ,,,,###########################,,,                        '##       
           ' ,,###''''                  '''############,,,                           
         ,,##''                                '''############,,,,        ,,,,,,###''
      ,#''                                            '''#######################'''  
     '                                                          ''''####''''         
             ,#######,   #######,   ,#######,      ##                                
            ,#'     '#,  ##    ##  ,#'     '#,    #''#        ,####,   ,####,        
            ##       ##  ##   ,#'  ##            #'  '#       #'       #'  '#        
            ##       ##  #######   ##           ,######,      #####,   #    #        
            '#,     ,#'  ##    ##  '#,     ,#' ,#      #,     #,   #   #,  ,#        
             '#######'   ##     ##  '#######'  #'      '#     '####' # '####'        



                #########################################################
                #                        -***-                          #
                #          Department of theory and spectroscopy        #
                #                                                       #
                #                      Frank Neese                      #
                #                                                       #
                #     Directorship, Architecture, Infrastructure        #
                #                    SHARK, DRIVERS                     #
                #        Core code/Algorithms in most modules           #
                #                                                       #
                #        Max Planck Institute fuer Kohlenforschung      #
                #                Kaiser Wilhelm Platz 1                 #
                #                 D-45470 Muelheim/Ruhr                 #
                #                      Germany                          #
                #                                                       #
                #                  All rights reserved                  #
                #                        -***-                          #
                #########################################################


                         Program Version 6.0.1  -  RELEASE   -


 With contributions from (in alphabetic order):
[Max-Planck-Institut fuer Kohlenforschung]                               
  Daniel Aravena         : Magnetic Suceptibility                        
  Michael Atanasov       : Ab Initio Ligand Field Theory (pilot matlab implementation)
  Alexander A. Auer      : GIAO ZORA, VPT2 properties, NMR spectrum      
  Ute Becker             : All parallelization in ORCA, NUMFREQ, NUMCALC 
  Giovanni Bistoni       : ED, misc. LED, open-shell LED, HFLD           
  Martin Brehm           : Molecular dynamics                            
  Dmytro Bykov           : pre 5.0 version of the SCF Hessian            
  Marcos Casanova-Páez   : Triplet and SCS-CIS(D). UHF-(DLPNO)-IP/EA/STEOM-CCSD. UHF-CVS-IP/STEOM-CCSD   
  Vijay G. Chilkuri      : MRCI spin determinant printing, contributions to CSF-ICE 
  Pauline Colinet        : FMM embedding                                 
  Dipayan Datta          : RHF DLPNO-CCSD density                        
  Achintya Kumar Dutta   : EOM-CC, STEOM-CC                              
  Nicolas Foglia         : Exact transition moments, OPA infrastructure, MCD improvements    
  Dmitry Ganyushin       : Spin-Orbit,Spin-Spin,Magnetic field MRCI      
  Miquel Garcia-Rates    : C-PCM and meta-GGA Hessian, CCSD/C-PCM, Gaussian charge scheme 
  Tiago L. C. Gouveia    : GS-ROHF, GS-ROCIS                             
  Yang Guo               : DLPNO-NEVPT2, F12-NEVPT2, CIM, IAO-localization        
  Andreas Hansen         : Spin unrestricted coupled pair/coupled cluster methods 
  Ingolf Harden          : AUTO-CI MPn and infrastructure                
  Benjamin Helmich-Paris : MC-RPA, TRAH-(SCF,CASSCF), AVAS, COSX integrals, SCF dyn. polar. 
  Lee Huntington         : MR-EOM, pCC                                   
  Robert Izsak           : Overlap fitted RIJCOSX, COSX-SCS-MP3, EOM     
  Riya Kayal             : Wick's Theorem for AUTO-CI, AUTO-CI UHF-CCSDT 
  Emily Kempfer          : AUTO-CI, RHF CISDT and CCSDT                  
  Christian Kollmar      : KDIIS, OOCD, Brueckner-CCSD(T), CCSD density, CASPT2, CASPT2-K, improved NEVPT2 
  Axel Koslowski         : Symmetry handling                             
  Simone Kossmann        : meta-GGA functionals, TD-DFT gradient, OOMP2, (MP2 Hessian; deprecated post 5.0) 
  Lucas Lang             : DCDCAS                                        
  Marvin Lechner         : AUTO-CI (C++ implementation), FIC-MRCC        
  Spencer Leger          : CASSCF response                               
  Dagmar Lenk            : GEPOL surface, SMD, ORCA-2-JSON               
  Dimitrios Liakos       : Extrapolation schemes; Compound Job, initial MDCI parallelization 
  Dimitrios Manganas     : Further ROCIS development; embedding schemes. LFT, Crystal Embedding 
  Dimitrios Pantazis     : SARC Basis sets                               
  Anastasios Papadopoulos: AUTO-CI, single reference methods and gradients 
  Taras Petrenko         : pre 6.0 DFT Hessian and TD-DFT gradient, (ASA, deprecated), ECA, 1-Electron XAS/XES, NRVS 
  Peter Pinski           : DLPNO-MP2, DLPNO-MP2 Gradient                 
  Christoph Reimann      : Effective Core Potentials                     
  Marius Retegan         : Local ZFS, SOC                                
  Christoph Riplinger    : Optimizer, TS searches, QM/MM, DLPNO-CCSD(T), (RO)-DLPNO pert. Triples 
  Michael Roemelt        : Original ROCIS implementation                 
  Masaaki Saitow         : Open-shell DLPNO-CCSD energy and density      
  Barbara Sandhoefer     : DKH picture change effects                    
  Kantharuban Sivalingam : CASSCF convergence/infrastructure, NEVPT2 and variants, FIC-MRCI 
  Bernardo de Souza      : ESD, SOC TD-DFT                               
  Georgi L. Stoychev     : AutoAux, RI-MP2 NMR, DLPNO-MP2 response, X2C  
  Van Anh Tran           : RI-MP2 g-tensors                              
  Willem Van den Heuvel  : Paramagnetic NMR                              
  Zikuan Wang            : NOTCH, Electric field optimization            
  Frank Wennmohs         : Technical directorship and infrastructure     
  Hang Xu                : AUTO-CI-Response properties                   
                                                                         
[FACCTs GmbH]                                                            
  Markus Bursch, Miquel Garcia-Rates, Christoph Riplinger, Bernardo de Souza, Georgi L. Stoychev 
                                                                 
  APM, Basis sets (HGBS, AHGBS, def-TZVP (Ac-Lr), def2-XVPD (La-Lu)), CI-OPT, improved COSX, DLPNO-Multilevel,           
  DOCKER, DRACO, updates on ESD, GOAT, IRC, LR-CPCM, MBIS, meta-GGA TD-DFT gradient, ML-optimized integration grids, 
  MM, NACMEs, nearIR, NEB, NEB-TS, NL-DFT gradient (VV10), 2- and 3-layer-ONIOM, interface openCOSMO-RS, QMMM,   
  Crystal-QMMM, SF, symmetry and pop. for TD-DFT, r2SCAN hybrids, SOLVATOR                                   
                                                                         
[Other institutions]                                                     
  V. Asgeirsson          : NEB                                           
  Christoph Bannwarth    : sTDA-DFT, sTD-DFT, PBEh-3c, B97-3c, D3        
  Sebastian Ehlert       : rSCAN, r2SCAN, r2SCAN-3c, D4, dhf basis sets  
  Marvin Friede          : D4 for Fr, Ra, Ac-Lr                          
  Lars Goerigk           : TD-DFT with DH, B97 family of functionals     
  Stefan Grimme          : VdW corrections, initial TS optimization, DFT functionals, gCP, sTDA/sTD-DF 
  Waldemar Hujo          : DFT-NL                                        
  H. Jonsson             : NEB                                           
  Holger Kruse           : gCP                                           
  Marcel Mueller         : wB97X-3c, vDZP basis set                      
  Hagen Neugebauer       : wr2SCAN                                       
  Tobias Risthaus        : range-separated hybrid DFT                    
  Lukas Wittmann         : regularized MP2, r2SCAN double-hybrids, wr2SCAN        
                                                                         
We gratefully acknowledge several colleagues who have allowed us to      
interface, adapt or use parts of their codes:                            
  Ed Valeev, F. Pavosevic, A. Kumar             : LibInt (2-el integral package), F12 methods 
  Garnet Chan, S. Sharma, J. Yang, R. Olivares  : DMRG                   
  Ulf Ekstrom                                   : XCFun DFT Library      
  Mihaly Kallay                                 : mrcc  (arbitrary order and MRCC methods)
  Frank Weinhold                                : gennbo (NPA and NBO analysis)           
  Simon Mueller                                 : openCOSMO-RS                            
  Christopher J. Cramer and Donald G. Truhlar   : smd solvation model                     
  S Lehtola, MJT Oliveira, MAL Marques          : LibXC Library                           
  Liviu Ungur et al                             : ANISO software                          


 Your calculation uses the libint2 library for the computation of 2-el integrals
 For citations please refer to: http://libint.valeyev.net

 Your ORCA version has been built with support for libXC version: 6.2.2
 For citations please refer to: https://libxc.gitlab.io

 This ORCA versions uses:
   CBLAS   interface :  Fast vector & matrix operations
   LAPACKE interface :  Fast linear algebra routines
   SCALAPACK package :  Parallel linear algebra routines
   Shared memory     :  Shared parallel matrices
   BLAS/LAPACK       :  OpenBLAS 0.3.27  USE64BITINT DYNAMIC_ARCH NO_AFFINITY SapphireRapids SINGLE_THREADED
        Core in use  :  SapphireRapids
   Copyright (c) 2011-2014, The OpenBLAS Project




***************************************
The coordinates will be read from file: /scratch/kx58/rs2200/dhdft/inputs/compas3x-xyzs/hc_c24h14_0pent_2.xyz
***************************************


Your calculation utilizes the atom-pairwise dispersion correction
based on EEQ partial charges (D4)


================================================================================

----- Orbital basis set information -----
Your calculation utilizes the basis: def2-TZVP
   F. Weigend and R. Ahlrichs, Phys. Chem. Chem. Phys. 7, 3297 (2005).

================================================================================
                                        WARNINGS
                       Please study these warnings very carefully!
================================================================================


WARNING: No MP2 level density has been requested!
         To calculate MP2 level properties use
         %mp2 Density relaxed end
         or
         %mp2 Density unrelaxed end
         Otherwise for double-hybrid DFT only the energy is correct!

================================================================================
                                       INPUT FILE
================================================================================
NAME = compas3x_hc_c24h14_0pent_2_tz_nori.inp
|  1> ! RKS revDSD-PBEP86-D4/2021 defgrid3  NORI NOPOP NoFrozencore NoUseSym
|  2> 
|  3> %basis
|  4> Basis "def2-TZVP"
|  5> 
|  6> 
|  7> end
|  8> 
|  9> %method
| 10> ScalHFX 0.69
| 11> ScalDFX 0.31
| 12> ScalDFC 0.4038
| 13> ScalLDAC 0.4038
| 14> 
| 15> D4S6 0.4612
| 16> D4S8 0.0
| 17> D4A1 0.44
| 18> D4A2 3.60
| 19> end
| 20> 
| 21> %mp2
| 22> PS 0.5979
| 23> PT 0.0571
| 24> end
| 25> 
| 26> %pal
| 27> nprocs 104
| 28> end
| 29> 
| 30> *XYZFILE 0 1 /scratch/kx58/rs2200/dhdft/inputs/compas3x-xyzs/hc_c24h14_0pent_2.xyz
| 31> 
| 32>                          ****END OF INPUT****
================================================================================

                       ****************************
                       * Single Point Calculation *
                       ****************************

---------------------------------
CARTESIAN COORDINATES (ANGSTROEM)
---------------------------------
  C      2.253740   -0.108310   -0.213590
  C      1.343849   -1.175081   -0.401665
  C     -0.058486   -0.963802   -0.257558
  C     -0.553573    0.303623    0.082639
  C      0.329413    1.438105   -0.066354
  C      1.727139    1.239028   -0.139567
  C      3.618704   -0.395028   -0.191316
  C      4.086866   -1.677566   -0.413738
  C      3.206816   -2.708482   -0.672838
  C      1.831669   -2.478674   -0.660528
  C      0.902656   -3.541274   -0.886404
  C     -0.426667   -3.340518   -0.782343
  C     -0.954121   -2.063661   -0.417427
  C     -2.306610   -1.871702   -0.216711
  C     -2.794287   -0.669744    0.313364
  C     -1.899157    0.415352    0.538136
  C     -0.172664    2.734240   -0.258781
  C      0.665247    3.817281   -0.377622
  C      2.042714    3.634056   -0.325157
  C      2.558281    2.362362   -0.239575
  C     -4.152742   -0.533928    0.678799
  C     -4.598678    0.583738    1.321981
  C     -3.688967    1.593775    1.669985
  C     -2.377659    1.510752    1.289835
  H      4.335923    0.386564    0.003083
  H      5.150230   -1.867905   -0.394328
  H      3.574380   -3.705818   -0.867320
  H      1.300138   -4.515990   -1.131847
  H     -1.126428   -4.148618   -0.942061
  H     -2.997409   -2.681417   -0.406498
  H     -1.236392    2.876563   -0.369590
  H      0.255128    4.805183   -0.527480
  H      2.705830    4.483375   -0.399765
  H      3.628365    2.236190   -0.283425
  H     -4.825276   -1.352338    0.464193
  H     -5.636915    0.679109    1.604182
  H     -4.028996    2.435417    2.255673
  H     -1.682061    2.267145    1.619618

----------------------------
CARTESIAN COORDINATES (A.U.)
----------------------------
  NO LB      ZA    FRAG     MASS         X           Y           Z
   0 C     6.0000    0    12.011    4.258951   -0.204676   -0.403627
   1 C     6.0000    0    12.011    2.539507   -2.220581   -0.759036
   2 C     6.0000    0    12.011   -0.110522   -1.821323   -0.486715
   3 C     6.0000    0    12.011   -1.046101    0.573763    0.156164
   4 C     6.0000    0    12.011    0.622500    2.717625   -0.125391
   5 C     6.0000    0    12.011    3.263820    2.341423   -0.263744
   6 C     6.0000    0    12.011    6.838360   -0.746495   -0.361535
   7 C     6.0000    0    12.011    7.723057   -3.170141   -0.781851
   8 C     6.0000    0    12.011    6.060004   -5.118289   -1.271480
   9 C     6.0000    0    12.011    3.461353   -4.684016   -1.248217
  10 C     6.0000    0    12.011    1.705772   -6.692038   -1.675061
  11 C     6.0000    0    12.011   -0.806284   -6.312663   -1.478415
  12 C     6.0000    0    12.011   -1.803027   -3.899755   -0.788822
  13 C     6.0000    0    12.011   -4.358862   -3.537005   -0.409525
  14 C     6.0000    0    12.011   -5.280438   -1.265633    0.592173
  15 C     6.0000    0    12.011   -3.588887    0.784902    1.016930
  16 C     6.0000    0    12.011   -0.326287    5.166964   -0.489025
  17 C     6.0000    0    12.011    1.257135    7.213616   -0.713603
  18 C     6.0000    0    12.011    3.860170    6.867371   -0.614457
  19 C     6.0000    0    12.011    4.834450    4.464216   -0.452732
  20 C     6.0000    0    12.011   -7.847544   -1.008978    1.282744
  21 C     6.0000    0    12.011   -8.690242    1.103104    2.498181
  22 C     6.0000    0    12.011   -6.971138    3.011799    3.155815
  23 C     6.0000    0    12.011   -4.493125    2.854908    2.437435
  24 H     1.0000    0     1.008    8.193707    0.730500    0.005827
  25 H     1.0000    0     1.008    9.732525   -3.529829   -0.745172
  26 H     1.0000    0     1.008    6.754599   -7.002982   -1.638998
  27 H     1.0000    0     1.008    2.456905   -8.533984   -2.138881
  28 H     1.0000    0     1.008   -2.128640   -7.839753   -1.780237
  29 H     1.0000    0     1.008   -5.664283   -5.067144   -0.768169
  30 H     1.0000    0     1.008   -2.336442    5.435917   -0.698424
  31 H     1.0000    0     1.008    0.482122    9.080480   -0.996793
  32 H     1.0000    0     1.008    5.113278    8.472352   -0.755446
  33 H     1.0000    0     1.008    6.856615    4.225787   -0.535596
  34 H     1.0000    0     1.008   -9.118449   -2.555549    0.877197
  35 H     1.0000    0     1.008  -10.652225    1.283330    3.031464
  36 H     1.0000    0     1.008   -7.613698    4.602271    4.262604
  37 H     1.0000    0     1.008   -3.178635    4.284282    3.060634

--------------------------------
INTERNAL COORDINATES (ANGSTROEM)
--------------------------------
 C      0   0   0     0.000000000000     0.00000000     0.00000000
 C      1   0   0     1.414663637289     0.00000000     0.00000000
 C      2   1   0     1.425464466595   120.50017092     0.00000000
 C      3   2   1     1.402572995186   120.37870927   359.52507513
 C      4   3   2     1.445307424461   117.94693509    16.12748089
 C      5   4   3     1.413729581635   119.92208573   340.69322951
 C      1   2   3     1.394930511913   118.45671062   171.73235787
 C      7   1   2     1.383311589432   121.27638397     3.21431978
 C      8   7   1     1.380002682622   120.46293425     0.40332729
 C      9   8   7     1.394270977959   120.27706623   357.43613185
 C     10   9   8     1.429407016748   121.13744392   181.90966474
 C     11  10   9     1.348417794490   121.18838493   175.30002270
 C      3   2   1     1.427378540689   119.45610970   181.65337547
 C     13   3   2     1.380711136842   119.42168335   177.01197804
 C     14  13   3     1.401254024792   121.00831219   351.32411572
 C     15  14  13     1.424504988643   119.62968264     5.65956968
 C      5   4   3     1.403236412892   121.37094978   155.02882730
 C     17   5   4     1.374480674545   121.43682151   178.86493340
 C     18  17   5     1.390589195289   119.78735242     0.86148013
 C     19  18  17     1.374896814762   119.71368986     4.09178727
 C     15  14  13     1.413289247893   120.98210891   188.19146409
 C     21  15  14     1.364448305594   120.98069298   173.11200101
 C     22  21  15     1.403159659843   119.64719559   357.68378575
 C     23  22  21     1.367821505243   120.59208200     4.52144795
 H      7   1   2     1.078461834640   120.30929317   183.30972400
 H      8   7   1     1.080439784119   119.57300608   179.73947806
 H      9   8   7     1.080558448346   120.42235208   178.69048652
 H     11  10   9     1.080882141745   117.85572194   356.04012085
 H     12  11  10     1.080833831160   121.03357276   180.74011107
 H     14  13   3     1.081138168759   119.75227568   175.52888146
 H     17   5   4     1.078912358554   119.25471420   355.48511304
 H     18  17   5     1.080094795624   120.08113292   179.86180156
 H     19  18  17     1.080107411215   120.12768016   181.12300535
 H     20  19  18     1.078388155645   118.54083160   174.93983480
 H     21  15  14     1.080811096328   118.29403744   355.03981062
 H     22  21  15     1.080124160395   120.63956877   180.38151587
 H     23  22  21     1.080282263687   119.42032806   185.40924541
 H     24  23  22     1.079232302031   119.36915802   183.76113770

---------------------------
INTERNAL COORDINATES (A.U.)
---------------------------
 C      0   0   0     0.000000000000     0.00000000     0.00000000
 C      1   0   0     2.673326846093     0.00000000     0.00000000
 C      2   1   0     2.693737455501   120.50017092     0.00000000
 C      3   2   1     2.650478843735   120.37870927   359.52507513
 C      4   3   2     2.731235211554   117.94693509    16.12748089
 C      5   4   3     2.671561736713   119.92208573   340.69322951
 C      1   2   3     2.636036643367   118.45671062   171.73235787
 C      7   1   2     2.614080061907   121.27638397     3.21431978
 C      8   7   1     2.607827134233   120.46293425     0.40332729
 C      9   8   7     2.634790304818   120.27706623   357.43613185
 C     10   9   8     2.701187795560   121.13744392   181.90966474
 C     11  10   9     2.548140345692   121.18838493   175.30002270
 C      3   2   1     2.697354531338   119.45610970   181.65337547
 C     13   3   2     2.609165918687   119.42168335   177.01197804
 C     14  13   3     2.647986350911   121.00831219   351.32411572
 C     15  14  13     2.691924304939   119.62968264     5.65956968
 C      5   4   3     2.651732521512   121.37094978   155.02882730
 C     17   5   4     2.597392051257   121.43682151   178.86493340
 C     18  17   5     2.627832743887   119.78735242     0.86148013
 C     19  18  17     2.598178442302   119.71368986     4.09178727
 C     15  14  13     2.670729626533   120.98210891   188.19146409
 C     21  15  14     2.578433621465   120.98069298   173.11200101
 C     22  21  15     2.651587479269   119.64719559   357.68378575
 C     23  22  21     2.584808044997   120.59208200     4.52144795
 H      7   1   2     2.037997513355   120.30929317   183.30972400
 H      8   7   1     2.041735296178   119.57300608   179.73947806
 H      9   8   7     2.041959539068   120.42235208   178.69048652
 H     11  10   9     2.042571230945   117.85572194   356.04012085
 H     12  11  10     2.042479937169   121.03357276   180.74011107
 H     14  13   3     2.043055051883   119.75227568   175.52888146
 H     17   5   4     2.038848880171   119.25471420   355.48511304
 H     18  17   5     2.041083362402   120.08113292   179.86180156
 H     19  18  17     2.041107202416   120.12768016   181.12300535
 H     20  19  18     2.037858280234   118.54083160   174.93983480
 H     21  15  14     2.042436974564   118.29403744   355.03981062
 H     22  21  15     2.041138853779   120.63956877   180.38151587
 H     23  22  21     2.041437625701   119.42032806   185.40924541
 H     24  23  22     2.039453485719   119.36915802   183.76113770

---------------------
BASIS SET INFORMATION
---------------------
There are 2 groups of distinct atoms

 Group   1 Type C   : 11s6p2d1f contracted to 5s3p2d1f pattern {62111/411/11/1}
 Group   2 Type H   : 5s1p contracted to 3s1p pattern {311/1}

Atom   0C    basis set group =>   1
Atom   1C    basis set group =>   1
Atom   2C    basis set group =>   1
Atom   3C    basis set group =>   1
Atom   4C    basis set group =>   1
Atom   5C    basis set group =>   1
Atom   6C    basis set group =>   1
Atom   7C    basis set group =>   1
Atom   8C    basis set group =>   1
Atom   9C    basis set group =>   1
Atom  10C    basis set group =>   1
Atom  11C    basis set group =>   1
Atom  12C    basis set group =>   1
Atom  13C    basis set group =>   1
Atom  14C    basis set group =>   1
Atom  15C    basis set group =>   1
Atom  16C    basis set group =>   1
Atom  17C    basis set group =>   1
Atom  18C    basis set group =>   1
Atom  19C    basis set group =>   1
Atom  20C    basis set group =>   1
Atom  21C    basis set group =>   1
Atom  22C    basis set group =>   1
Atom  23C    basis set group =>   1
Atom  24H    basis set group =>   2
Atom  25H    basis set group =>   2
Atom  26H    basis set group =>   2
Atom  27H    basis set group =>   2
Atom  28H    basis set group =>   2
Atom  29H    basis set group =>   2
Atom  30H    basis set group =>   2
Atom  31H    basis set group =>   2
Atom  32H    basis set group =>   2
Atom  33H    basis set group =>   2
Atom  34H    basis set group =>   2
Atom  35H    basis set group =>   2
Atom  36H    basis set group =>   2
Atom  37H    basis set group =>   2


           ************************************************************
           *        Program running with 104 parallel MPI-processes   *
           *              working on a common directory               *
           ************************************************************
------------------------------------------------------------------------------
                             ORCA STARTUP CALCULATIONS
------------------------------------------------------------------------------
------------------------------------------------------------------------------
                   ___                                                        
                  /   \      - P O W E R E D   B Y -                         
                 /     \                                                     
                 |  |  |   _    _      __       _____    __    __             
                 |  |  |  | |  | |    /  \     |  _  \  |  |  /  |          
                  \  \/   | |  | |   /    \    | | | |  |  | /  /          
                 / \  \   | |__| |  /  /\  \   | |_| |  |  |/  /          
                |  |  |   |  __  | /  /__\  \  |    /   |      \           
                |  |  |   | |  | | |   __   |  |    \   |  |\   \          
                \     /   | |  | | |  |  |  |  | |\  \  |  | \   \       
                 \___/    |_|  |_| |__|  |__|  |_| \__\ |__|  \__/        
                                                                              
                      - O R C A' S   B I G   F R I E N D -                    
                                      &                                       
                       - I N T E G R A L  F E E D E R -                       
                                                                              
 v1 FN, 2020, v2 2021, v3 2022-2024                                           
------------------------------------------------------------------------------


----------------------
SHARK INTEGRAL PACKAGE
----------------------

Number of atoms                             ...     38
Number of basis functions                   ...    828
Number of shells                            ...    320
Maximum angular momentum                    ...      3
Integral batch strategy                     ... SHARK/LIBINT Hybrid
RI-J (if used) integral strategy            ... SPLIT-RIJ (Revised 2003 algorithm where possible)
Printlevel                                  ...      1
Contraction scheme used                     ... SEGMENTED contraction
Prescreening option                         ... SCHWARTZ
   Thresh                                   ... 1.000e-10
   Tcut                                     ... 1.000e-11
   Tpresel                                  ... 1.000e-11 
Coulomb Range Separation                    ... NOT USED
Exchange Range Separation                   ... NOT USED
Multipole approximations                    ... NOT USED
Finite Nucleus Model                        ... NOT USED
CABS basis                                  ... NOT available
Auxiliary Coulomb fitting basis             ... NOT available
Auxiliary J/K fitting basis                 ... NOT available
Auxiliary Correlation fitting basis         ... NOT available
Auxiliary 'external' fitting basis          ... NOT available

Checking pre-screening integrals            ... done (  0.0 sec) Dimension = 320
Check shell pair data                       ... done (  0.0 sec)
Shell pair information
Shell pair cut-off parameter TPreSel        ...   1.0e-11
Total number of shell pairs                 ...     51360
Shell pairs after pre-screening             ...     37392
Total number of primitive shell pairs       ...    159900
Primitive shell pairs kept                  ...     77531
          la=0 lb=0:   9043 shell pairs
          la=1 lb=0:  10576 shell pairs
          la=1 lb=1:   3061 shell pairs
          la=2 lb=0:   5514 shell pairs
          la=2 lb=1:   3220 shell pairs
          la=2 lb=2:    881 shell pairs
          la=3 lb=0:   2562 shell pairs
          la=3 lb=1:   1528 shell pairs
          la=3 lb=2:    804 shell pairs
          la=3 lb=3:    203 shell pairs

Calculating one electron integrals          ... done (  0.1 sec)
Calculating Nuclear repulsion               ... done (  0.0 sec) ENN=   1835.364193037067 Eh

Diagonalization of the overlap matrix:
Smallest eigenvalue                        ... 2.496e-06
Time for diagonalization                   ...    0.109 sec
Threshold for overlap eigenvalues          ... 1.000e-07
Number of eigenvalues below threshold      ... 0
Time for construction of square roots      ...    0.051 sec
Total time needed                          ...    0.185 sec

-------------------
DFT GRID GENERATION
-------------------

General Integration Accuracy     IntAcc      ... 4.959
Radial Grid Type                 RadialGrid  ... OptM3 with GC (2021)
Angular Grid (max. ang.)         AngularGrid ... 6 (Lebedev-590)
Angular grid pruning method      GridPruning ... 4 (adaptive)
Weight generation scheme         WeightScheme... mBecke (2022)
Basis function cutoff            BFCut       ... 1.0000e-10
Integration weight cutoff        WCut        ... 1.0000e-14
Partially contracted basis set               ... off
Rotationally invariant grid construction     ... off
Angular grids for H and He will be reduced by one unit

Total number of grid points                  ...   457284
Total number of batches                      ...     7164
Average number of points per batch           ...       63
Average number of grid points per atom       ...    12034
Initializing property integral containers    ... done (  0.0 sec)

SHARK setup successfully completed in   4.9 seconds

Maximum memory used throughout the entire STARTUP-calculation: 117.5 MB


           ************************************************************
           *        Program running with 104 parallel MPI-processes   *
           *              working on a common directory               *
           ************************************************************
-------------------------------------------------------------------------------
                                 ORCA GUESS
                   Start orbitals & Density for SCF / CASSCF
-------------------------------------------------------------------------------

------------
SCF SETTINGS
------------
Hamiltonian:
 Density Functional     Method          .... DFT(GTOs)
 Exchange Functional    Exchange        .... PBE
   PBE kappa parameter   XKappa         ....  0.804000
   PBE mue parameter    XMuePBE         ....  0.219520
 Correlation Functional Correlation     .... P86
 LDA part of GGA corr.  LDAOpt          .... VWN-5
 Gradients option       PostSCFGGA      .... off
 Hybrid DFT is turned on
   Fraction HF Exchange ScalHFX         ....  0.690000
   Scaling of DF-GGA-X  ScalDFX         ....  0.310000
   Scaling of DF-GGA-C  ScalDFC         ....  0.403800
   Scaling of DF-LDA-C  ScalLDAC        ....  0.403800
   Perturbative correction              ....  1.000000


General Settings:
 Integral files         IntName         .... compas3x_hc_c24h14_0pent_2_tz_nori
 Hartree-Fock type      HFTyp           .... RHF
 Total Charge           Charge          ....    0
 Multiplicity           Mult            ....    1
 Number of Electrons    NEL             ....  158
 Basis Dimension        Dim             ....  828
 Nuclear Repulsion      ENuc            ....   1835.3641930371 Eh

Convergence Acceleration:
 AO-DIIS                CNVDIIS         .... on
   Start iteration      DIISMaxIt       ....    12
   Startup error        DIISStart       ....  0.200000
   # of expansion vecs  DIISMaxEq       ....     5
   Bias factor          DIISBfac        ....   1.050
   Max. coefficient     DIISMaxC        ....  10.000
 MO-DIIS                CNVKDIIS        .... off
 Trust-Rad. Augm. Hess. CNVTRAH         .... auto
   Auto Start mean grad. ratio tolernc. ....  1.125000
   Auto Start start iteration           ....    50
   Auto Start num. interpolation iter.  ....    10
   Max. Number of Micro iterations      ....    24
   Max. Number of Macro iterations      .... Maxiter - #DIIS iter
   Number of Davidson start vectors     ....     2
   Converg. threshold    (grad. norm)   ....   5.000e-05
   Grad. Scal. Fac. for Micro threshold ....   0.100
   Minimum threshold for Micro iter.    ....   1.000e-02
   NR start threshold (gradient norm)   ....   1.000e-04
   Initial trust radius                 ....   0.400
   Minimum AH scaling param. (alpha)    ....   1.000
   Maximum AH scaling param. (alpha)    .... 1000.000
   Quad. conv. algorithm                .... NR
   White noise on init. David. guess    .... on
   Maximum white noise                  ....   0.010
   Pseudo random numbers                .... off
   Inactive MOs                         .... canonical
   Orbital update algorithm             .... Taylor
   Preconditioner                       .... Diag
   Full preconditioner red. dimension   ....   250
 SOSCF                  CNVSOSCF        .... on
   Start iteration      SOSCFMaxIt      ....   150
   Startup grad/error   SOSCFStart      ....  0.003300
   Hessian update       SOSCFHessUp     .... L-BFGS
 Level Shifting         CNVShift        .... on
   Level shift para.    LevelShift      ....    0.2500
   Turn off err/grad.   ShiftErr        ....    0.0010
 Zerner damping         CNVZerner       .... off
 Static damping         CNVDamp         .... on
   Fraction old density DampFac         ....    0.7000
   Max. Damping (<1)    DampMax         ....    0.9800
   Min. Damping (>=0)   DampMin         ....    0.0000
   Turn off err/grad.   DampErr         ....    0.1000

SCF Procedure:
 Maximum # iterations   MaxIter         ....   125
 SCF integral mode      SCFMode         .... Direct
   Integral package                     .... SHARK and LIBINT hybrid scheme
 Reset frequency        DirectResetFreq ....    20
 Integral Threshold     Thresh          ....  1.000e-10 Eh
 Primitive CutOff       TCut            ....  1.000e-11 Eh

Convergence Tolerance:
 Convergence Check Mode ConvCheckMode   .... Total+1el-Energy
 Convergence forced     ConvForced      .... 0
 Energy Change          TolE            ....  1.000e-06 Eh
 1-El. energy change                    ....  1.000e-03 Eh
 Orbital Gradient       TolG            ....  5.000e-05
 Orbital Rotation angle TolX            ....  5.000e-05
 DIIS Error             TolErr          ....  1.000e-06

------------------------------
INITIAL GUESS: MODEL POTENTIAL
------------------------------
Loading Hartree-Fock densities                     ... done
Calculating cut-offs                               ... done
Initializing the effective Hamiltonian             ... done
Setting up the integral package (SHARK)            ... done
Starting the Coulomb interaction                   ... done (   0.1 sec)
Making the grid                                    ... done (   0.3 sec)
Mapping shells                                     ... done
Starting the XC term evaluation                    ... done (   0.1 sec)
  promolecular density results
     # of electrons  =    158.001838239
     EX              =   -127.050588138
     EC              =      0.198136498
     EX+EC           =   -126.852451640
Transforming the Hamiltonian                       ... done (   0.1 sec)
Diagonalizing the Hamiltonian                      ... done (   0.1 sec)
Back transforming the eigenvectors                 ... done (   0.1 sec)
Now organizing SCF variables                       ... done
                      ------------------
                      INITIAL GUESS DONE (   0.9 sec)
                      ------------------
             **** ENERGY FILE WAS UPDATED (compas3x_hc_c24h14_0pent_2_tz_nori.en.tmp) ****
Finished Guess after  15.8 sec
Maximum memory used throughout the entire GUESS-calculation: 66.0 MB


           ************************************************************
           *        Program running with 104 parallel MPI-processes   *
           *              working on a common directory               *
           ************************************************************

-------------------------------------------------------------------------------------------
                                      ORCA LEAN-SCF
                              memory conserving SCF solver
-------------------------------------------------------------------------------------------

----------------------------------------D-I-I-S--------------------------------------------
Iteration    Energy (Eh)           Delta-E    RMSDP     MaxDP     DIISErr   Damp  Time(sec)
-------------------------------------------------------------------------------------------
               ***  Starting incremental Fock matrix formation  ***
    1    -919.0081769511461971     0.00e+00  9.83e-04  3.88e-02  1.46e-01  0.700   6.7
    2    -919.1900198294219990    -1.82e-01  8.80e-04  4.20e-02  9.16e-02  0.700   6.6
                               ***Turning on AO-DIIS***
    3    -919.2976642784014984    -1.08e-01  5.71e-04  2.17e-02  5.18e-02  0.700   6.3
    4    -919.3648968640218300    -6.72e-02  1.50e-03  7.14e-02  3.55e-02  0.000   5.9
                              *** Initializing SOSCF ***
---------------------------------------S-O-S-C-F--------------------------------------
Iteration    Energy (Eh)           Delta-E    RMSDP     MaxDP     MaxGrad    Time(sec)
--------------------------------------------------------------------------------------
    5    -919.5113481259681976    -1.46e-01  1.75e-04  1.36e-02  3.24e-03     6.7
               *** Restarting incremental Fock matrix formation ***
    6    -919.5116430809289341    -2.95e-04  1.65e-04  9.60e-03  7.54e-04     9.0
    7    -919.5117244109856074    -8.13e-05  9.14e-05  4.15e-03  6.17e-04     5.2
    8    -919.5117465377215922    -2.21e-05  7.54e-05  3.90e-03  2.95e-04     5.1
    9    -919.5117524855822921    -5.95e-06  4.51e-05  1.93e-03  6.43e-05     4.9
   10    -919.5117528997575391    -4.14e-07  3.61e-05  1.71e-03  3.33e-05     5.0
                 **** Energy Check signals convergence ****

               *****************************************************
               *                     SUCCESS                       *
               *           SCF CONVERGED AFTER  10 CYCLES          *
               *****************************************************

             **** ENERGY FILE WAS UPDATED (compas3x_hc_c24h14_0pent_2_tz_nori.en.tmp) ****

----------------
TOTAL SCF ENERGY
----------------

Total Energy       :       -919.51175289975754 Eh          -25021.18685 eV

Components:
Nuclear Repulsion  :       1835.36419303706725 Eh           49942.79874 eV
Electronic Energy  :      -2754.87594593682479 Eh          -74963.98558 eV
One Electron Energy:      -4891.31148175388716 Eh         -133099.35206 eV
Two Electron Energy:       2136.43553581706237 Eh           58135.36647 eV

Virial components:
Potential Energy   :      -1837.09917630882410 Eh          -49990.01003 eV
Kinetic Energy     :        917.58742340906667 Eh           24968.82318 eV
Virial Ratio       :          2.00209716201595

DFT components:
N(Alpha)           :       79.000006840407 electrons
N(Beta)            :       79.000006840407 electrons
N(Total)           :      158.000013680814 electrons
E(X)               :      -40.067197755111 Eh       
E(C)               :       -2.356747909273 Eh       
E(XC)              :      -42.423945664385 Eh       

---------------
SCF CONVERGENCE
---------------

  Last Energy change         ...    4.1418e-07  Tolerance :   1.0000e-06
  Last MAX-Density change    ...    1.7078e-03  Tolerance :   1.0000e-05
  Last RMS-Density change    ...    3.6076e-05  Tolerance :   1.0000e-06
  Last DIIS Error            ...    3.2413e-03  Tolerance :   1.0000e-06
  Last Orbital Gradient      ...    3.3274e-05  Tolerance :   5.0000e-05
  Last Orbital Rotation      ...    1.1460e-04  Tolerance :   5.0000e-05


----------------
ORBITAL ENERGIES
----------------

  NO   OCC          E(Eh)            E(eV) 
   0   2.0000     -10.835965      -294.8616 
   1   2.0000     -10.833967      -294.8072 
   2   2.0000     -10.833442      -294.7929 
   3   2.0000     -10.832797      -294.7754 
   4   2.0000     -10.832288      -294.7615 
   5   2.0000     -10.831796      -294.7482 
   6   2.0000     -10.830766      -294.7201 
   7   2.0000     -10.830472      -294.7121 
   8   2.0000     -10.829759      -294.6927 
   9   2.0000     -10.829549      -294.6870 
  10   2.0000     -10.822970      -294.5080 
  11   2.0000     -10.821636      -294.4717 
  12   2.0000     -10.821364      -294.4643 
  13   2.0000     -10.821202      -294.4599 
  14   2.0000     -10.820351      -294.4367 
  15   2.0000     -10.820332      -294.4362 
  16   2.0000     -10.820314      -294.4357 
  17   2.0000     -10.819648      -294.4176 
  18   2.0000     -10.819299      -294.4081 
  19   2.0000     -10.819177      -294.4048 
  20   2.0000     -10.818776      -294.3939 
  21   2.0000     -10.818705      -294.3919 
  22   2.0000     -10.817673      -294.3639 
  23   2.0000     -10.817654      -294.3633 
  24   2.0000      -1.098790       -29.8996 
  25   2.0000      -1.062718       -28.9180 
  26   2.0000      -1.053135       -28.6573 
  27   2.0000      -1.021803       -27.8047 
  28   2.0000      -0.993635       -27.0382 
  29   2.0000      -0.969705       -26.3870 
  30   2.0000      -0.959126       -26.0992 
  31   2.0000      -0.922664       -25.1070 
  32   2.0000      -0.916332       -24.9347 
  33   2.0000      -0.912426       -24.8284 
  34   2.0000      -0.887224       -24.1426 
  35   2.0000      -0.867312       -23.6008 
  36   2.0000      -0.795663       -21.6511 
  37   2.0000      -0.781867       -21.2757 
  38   2.0000      -0.776431       -21.1278 
  39   2.0000      -0.771969       -21.0064 
  40   2.0000      -0.737851       -20.0779 
  41   2.0000      -0.723045       -19.6751 
  42   2.0000      -0.699770       -19.0417 
  43   2.0000      -0.678019       -18.4498 
  44   2.0000      -0.655124       -17.8268 
  45   2.0000      -0.646420       -17.5900 
  46   2.0000      -0.627238       -17.0680 
  47   2.0000      -0.604853       -16.4589 
  48   2.0000      -0.602210       -16.3870 
  49   2.0000      -0.581213       -15.8156 
  50   2.0000      -0.575228       -15.6528 
  51   2.0000      -0.572899       -15.5894 
  52   2.0000      -0.554019       -15.0756 
  53   2.0000      -0.543885       -14.7999 
  54   2.0000      -0.535306       -14.5664 
  55   2.0000      -0.532191       -14.4816 
  56   2.0000      -0.526147       -14.3172 
  57   2.0000      -0.522142       -14.2082 
  58   2.0000      -0.515140       -14.0177 
  59   2.0000      -0.509533       -13.8651 
  60   2.0000      -0.493420       -13.4266 
  61   2.0000      -0.481248       -13.0954 
  62   2.0000      -0.477656       -12.9977 
  63   2.0000      -0.470695       -12.8083 
  64   2.0000      -0.463645       -12.6164 
  65   2.0000      -0.455291       -12.3891 
  66   2.0000      -0.449338       -12.2271 
  67   2.0000      -0.437812       -11.9135 
  68   2.0000      -0.428086       -11.6488 
  69   2.0000      -0.414963       -11.2917 
  70   2.0000      -0.408614       -11.1190 
  71   2.0000      -0.390511       -10.6263 
  72   2.0000      -0.364047        -9.9062 
  73   2.0000      -0.348885        -9.4937 
  74   2.0000      -0.317531        -8.6405 
  75   2.0000      -0.307369        -8.3639 
  76   2.0000      -0.298727        -8.1288 
  77   2.0000      -0.260395        -7.0857 
  78   2.0000      -0.231524        -6.3001 
  79   0.0000      -0.004997        -0.1360 
  80   0.0000       0.020557         0.5594 
  81   0.0000       0.048658         1.3240 
  82   0.0000       0.059542         1.6202 
  83   0.0000       0.074148         2.0177 
  84   0.0000       0.108163         2.9433 
  85   0.0000       0.114693         3.1210 
  86   0.0000       0.117854         3.2070 
  87   0.0000       0.118147         3.2149 
  88   0.0000       0.123783         3.3683 
  89   0.0000       0.130465         3.5501 
*Only the first 10 virtual orbitals were printed.
-------
TIMINGS
-------

Total SCF time: 0 days 0 hours 1 min 16 sec 

Total time                  ....      76.846 sec
Sum of individual times     ....      76.669 sec  ( 99.8%)

SCF preparation             ....      14.715 sec  ( 19.1%)
Fock matrix formation       ....      54.511 sec  ( 70.9%)
  Startup                   ....       0.779 sec  (  1.4% of F)
  Coulomb+Exchange Fock     ....      44.577 sec  ( 81.8% of F)
  XC integration            ....       7.405 sec  ( 13.6% of F)
    XC Preparation          ....       0.000 sec  (  0.0% of XC)
    Basis function eval.    ....       0.485 sec  (  6.5% of XC)
    Density eval.           ....       0.576 sec  (  7.8% of XC)
    XC-Functional eval.     ....       0.029 sec  (  0.4% of XC)
    XC-Potential eval.      ....       0.478 sec  (  6.5% of XC)
Diagonalization             ....       0.000 sec  (  0.0%)
Density matrix formation    ....       1.346 sec  (  1.8%)
Total Energy calculation    ....       0.854 sec  (  1.1%)
Population analysis         ....       0.000 sec  (  0.0%)
Orbital Transformation      ....       0.723 sec  (  0.9%)
Orbital Orthonormalization  ....       0.000 sec  (  0.0%)
DIIS solution               ....       2.761 sec  (  3.6%)
SOSCF solution              ....       1.689 sec  (  2.2%)
Finished LeanSCF after  77.2 sec

Maximum memory used throughout the entire LEANSCF-calculation: 122.3 MB


           ************************************************************
           *        Program running with 104 parallel MPI-processes   *
           *              working on a common directory               *
           ************************************************************

------------------------------------------------------------------------------
                                ORCA  MP2 
------------------------------------------------------------------------------


----------
MP2 ENERGY (disk based algorithm)
----------

Dimension of the basis                      ...  828
Memory devoted to MP2                       ... 4096 MB   
Data format for buffers                     ... DOUBLE
Compression type for matrix containers      ... UNCOMPRESSED
Scaling for aa/bb pairs                     ...   5.710e-02
Scaling for ab pairs                        ...   5.979e-01
Overall scaling of the MP2 energy           ...   1.000e+00

-------------------------
SHARK HALF TRANSFORMATION (Exchange order)
-------------------------

Number of basis functions                   ...    828
Number of operators                         ...      1
   Operator  0:    0-  78 (p-index in (p*|q*))
   Operator  0:    0-  78 (q-index in (p*|q*)
Integral generator used                     ... SHARK
Contraction scheme used                     ... SEGMENTED CONTRACTION
MaxCore in resort                           ...   4096 MB

Half transformed integrals for op=   0      ... compas3x_hc_c24h14_0pent_2_tz_nori.SHARK_MNPQ0.tmp
Resorted half transformed integrals         ... compas3x_hc_c24h14_0pent_2_tz_nori.KAO_aa.tmp


ORCA finished by error termination in MP2
Calling Command: mpirun -np 104  /apps/orca/6.0.1/orca_mp2_mpi compas3x_hc_c24h14_0pent_2_tz_nori.mp2inp.tmp compas3x_hc_c24h14_0pent_2_tz_nori 
[file orca_tools/qcmsg.cpp, line 394]: 
  .... aborting the run

