
                                 *****************
                                 * O   R   C   A *
                                 *****************

                                            #,                                       
                                            ###                                      
                                            ####                                     
                                            #####                                    
                                            ######                                   
                                           ########,                                 
                                     ,,################,,,,,                         
                               ,,#################################,,                 
                          ,,##########################################,,             
                       ,#########################################, ''#####,          
                    ,#############################################,,   '####,        
                  ,##################################################,,,,####,       
                ,###########''''           ''''###############################       
              ,#####''   ,,,,##########,,,,          '''####'''          '####       
            ,##' ,,,,###########################,,,                        '##       
           ' ,,###''''                  '''############,,,                           
         ,,##''                                '''############,,,,        ,,,,,,###''
      ,#''                                            '''#######################'''  
     '                                                          ''''####''''         
             ,#######,   #######,   ,#######,      ##                                
            ,#'     '#,  ##    ##  ,#'     '#,    #''#        ,####,   ,####,        
            ##       ##  ##   ,#'  ##            #'  '#       #'       #'  '#        
            ##       ##  #######   ##           ,######,      #####,   #    #        
            '#,     ,#'  ##    ##  '#,     ,#' ,#      #,     #,   #   #,  ,#        
             '#######'   ##     ##  '#######'  #'      '#     '####' # '####'        



                #########################################################
                #                        -***-                          #
                #          Department of theory and spectroscopy        #
                #                                                       #
                #                      Frank Neese                      #
                #                                                       #
                #     Directorship, Architecture, Infrastructure        #
                #                    SHARK, DRIVERS                     #
                #        Core code/Algorithms in most modules           #
                #                                                       #
                #        Max Planck Institute fuer Kohlenforschung      #
                #                Kaiser Wilhelm Platz 1                 #
                #                 D-45470 Muelheim/Ruhr                 #
                #                      Germany                          #
                #                                                       #
                #                  All rights reserved                  #
                #                        -***-                          #
                #########################################################


                         Program Version 6.0.1  -  RELEASE   -


 With contributions from (in alphabetic order):
[Max-Planck-Institut fuer Kohlenforschung]                               
  Daniel Aravena         : Magnetic Suceptibility                        
  Michael Atanasov       : Ab Initio Ligand Field Theory (pilot matlab implementation)
  Alexander A. Auer      : GIAO ZORA, VPT2 properties, NMR spectrum      
  Ute Becker             : All parallelization in ORCA, NUMFREQ, NUMCALC 
  Giovanni Bistoni       : ED, misc. LED, open-shell LED, HFLD           
  Martin Brehm           : Molecular dynamics                            
  Dmytro Bykov           : pre 5.0 version of the SCF Hessian            
  Marcos Casanova-Páez   : Triplet and SCS-CIS(D). UHF-(DLPNO)-IP/EA/STEOM-CCSD. UHF-CVS-IP/STEOM-CCSD   
  Vijay G. Chilkuri      : MRCI spin determinant printing, contributions to CSF-ICE 
  Pauline Colinet        : FMM embedding                                 
  Dipayan Datta          : RHF DLPNO-CCSD density                        
  Achintya Kumar Dutta   : EOM-CC, STEOM-CC                              
  Nicolas Foglia         : Exact transition moments, OPA infrastructure, MCD improvements    
  Dmitry Ganyushin       : Spin-Orbit,Spin-Spin,Magnetic field MRCI      
  Miquel Garcia-Rates    : C-PCM and meta-GGA Hessian, CCSD/C-PCM, Gaussian charge scheme 
  Tiago L. C. Gouveia    : GS-ROHF, GS-ROCIS                             
  Yang Guo               : DLPNO-NEVPT2, F12-NEVPT2, CIM, IAO-localization        
  Andreas Hansen         : Spin unrestricted coupled pair/coupled cluster methods 
  Ingolf Harden          : AUTO-CI MPn and infrastructure                
  Benjamin Helmich-Paris : MC-RPA, TRAH-(SCF,CASSCF), AVAS, COSX integrals, SCF dyn. polar. 
  Lee Huntington         : MR-EOM, pCC                                   
  Robert Izsak           : Overlap fitted RIJCOSX, COSX-SCS-MP3, EOM     
  Riya Kayal             : Wick's Theorem for AUTO-CI, AUTO-CI UHF-CCSDT 
  Emily Kempfer          : AUTO-CI, RHF CISDT and CCSDT                  
  Christian Kollmar      : KDIIS, OOCD, Brueckner-CCSD(T), CCSD density, CASPT2, CASPT2-K, improved NEVPT2 
  Axel Koslowski         : Symmetry handling                             
  Simone Kossmann        : meta-GGA functionals, TD-DFT gradient, OOMP2, (MP2 Hessian; deprecated post 5.0) 
  Lucas Lang             : DCDCAS                                        
  Marvin Lechner         : AUTO-CI (C++ implementation), FIC-MRCC        
  Spencer Leger          : CASSCF response                               
  Dagmar Lenk            : GEPOL surface, SMD, ORCA-2-JSON               
  Dimitrios Liakos       : Extrapolation schemes; Compound Job, initial MDCI parallelization 
  Dimitrios Manganas     : Further ROCIS development; embedding schemes. LFT, Crystal Embedding 
  Dimitrios Pantazis     : SARC Basis sets                               
  Anastasios Papadopoulos: AUTO-CI, single reference methods and gradients 
  Taras Petrenko         : pre 6.0 DFT Hessian and TD-DFT gradient, (ASA, deprecated), ECA, 1-Electron XAS/XES, NRVS 
  Peter Pinski           : DLPNO-MP2, DLPNO-MP2 Gradient                 
  Christoph Reimann      : Effective Core Potentials                     
  Marius Retegan         : Local ZFS, SOC                                
  Christoph Riplinger    : Optimizer, TS searches, QM/MM, DLPNO-CCSD(T), (RO)-DLPNO pert. Triples 
  Michael Roemelt        : Original ROCIS implementation                 
  Masaaki Saitow         : Open-shell DLPNO-CCSD energy and density      
  Barbara Sandhoefer     : DKH picture change effects                    
  Kantharuban Sivalingam : CASSCF convergence/infrastructure, NEVPT2 and variants, FIC-MRCI 
  Bernardo de Souza      : ESD, SOC TD-DFT                               
  Georgi L. Stoychev     : AutoAux, RI-MP2 NMR, DLPNO-MP2 response, X2C  
  Van Anh Tran           : RI-MP2 g-tensors                              
  Willem Van den Heuvel  : Paramagnetic NMR                              
  Zikuan Wang            : NOTCH, Electric field optimization            
  Frank Wennmohs         : Technical directorship and infrastructure     
  Hang Xu                : AUTO-CI-Response properties                   
                                                                         
[FACCTs GmbH]                                                            
  Markus Bursch, Miquel Garcia-Rates, Christoph Riplinger, Bernardo de Souza, Georgi L. Stoychev 
                                                                 
  APM, Basis sets (HGBS, AHGBS, def-TZVP (Ac-Lr), def2-XVPD (La-Lu)), CI-OPT, improved COSX, DLPNO-Multilevel,           
  DOCKER, DRACO, updates on ESD, GOAT, IRC, LR-CPCM, MBIS, meta-GGA TD-DFT gradient, ML-optimized integration grids, 
  MM, NACMEs, nearIR, NEB, NEB-TS, NL-DFT gradient (VV10), 2- and 3-layer-ONIOM, interface openCOSMO-RS, QMMM,   
  Crystal-QMMM, SF, symmetry and pop. for TD-DFT, r2SCAN hybrids, SOLVATOR                                   
                                                                         
[Other institutions]                                                     
  V. Asgeirsson          : NEB                                           
  Christoph Bannwarth    : sTDA-DFT, sTD-DFT, PBEh-3c, B97-3c, D3        
  Sebastian Ehlert       : rSCAN, r2SCAN, r2SCAN-3c, D4, dhf basis sets  
  Marvin Friede          : D4 for Fr, Ra, Ac-Lr                          
  Lars Goerigk           : TD-DFT with DH, B97 family of functionals     
  Stefan Grimme          : VdW corrections, initial TS optimization, DFT functionals, gCP, sTDA/sTD-DF 
  Waldemar Hujo          : DFT-NL                                        
  H. Jonsson             : NEB                                           
  Holger Kruse           : gCP                                           
  Marcel Mueller         : wB97X-3c, vDZP basis set                      
  Hagen Neugebauer       : wr2SCAN                                       
  Tobias Risthaus        : range-separated hybrid DFT                    
  Lukas Wittmann         : regularized MP2, r2SCAN double-hybrids, wr2SCAN        
                                                                         
We gratefully acknowledge several colleagues who have allowed us to      
interface, adapt or use parts of their codes:                            
  Ed Valeev, F. Pavosevic, A. Kumar             : LibInt (2-el integral package), F12 methods 
  Garnet Chan, S. Sharma, J. Yang, R. Olivares  : DMRG                   
  Ulf Ekstrom                                   : XCFun DFT Library      
  Mihaly Kallay                                 : mrcc  (arbitrary order and MRCC methods)
  Frank Weinhold                                : gennbo (NPA and NBO analysis)           
  Simon Mueller                                 : openCOSMO-RS                            
  Christopher J. Cramer and Donald G. Truhlar   : smd solvation model                     
  S Lehtola, MJT Oliveira, MAL Marques          : LibXC Library                           
  Liviu Ungur et al                             : ANISO software                          


 Your calculation uses the libint2 library for the computation of 2-el integrals
 For citations please refer to: http://libint.valeyev.net

 Your ORCA version has been built with support for libXC version: 6.2.2
 For citations please refer to: https://libxc.gitlab.io

 This ORCA versions uses:
   CBLAS   interface :  Fast vector & matrix operations
   LAPACKE interface :  Fast linear algebra routines
   SCALAPACK package :  Parallel linear algebra routines
   Shared memory     :  Shared parallel matrices
   BLAS/LAPACK       :  OpenBLAS 0.3.27  USE64BITINT DYNAMIC_ARCH NO_AFFINITY SapphireRapids SINGLE_THREADED
        Core in use  :  SapphireRapids
   Copyright (c) 2011-2014, The OpenBLAS Project


Warning! Weird basis set assignment to AuxJK basis!


***************************************
The coordinates will be read from file: /scratch/kx58/rs2200/dhdft/inputs/compas3D-xyzs/hc_c24h14_0pent_10.xyz
***************************************


Your calculation utilizes the atom-pairwise dispersion correction
based on EEQ partial charges (D4)


================================================================================

----- Orbital basis set information -----
Your calculation utilizes the basis: def2-SVP
   F. Weigend and R. Ahlrichs, Phys. Chem. Chem. Phys. 7, 3297 (2005).

----- AuxC basis set information -----
Your calculation utilizes the auxiliary basis: def2-SVP/C
  H-La, Hf-Rn : A. Hellweg, C. Hattig, S. Hofener and W. Klopper, Theor. Chem. Acc. 117, 587 (2007).
        Ce-Lu : J. Chmela and M. E. Harding, Mol. Phys. (2018).

----- AuxJK basis set information -----
Your calculation utilizes the auxiliary basis: def2-SVP/C
  H-La, Hf-Rn : A. Hellweg, C. Hattig, S. Hofener and W. Klopper, Theor. Chem. Acc. 117, 587 (2007).
        Ce-Lu : J. Chmela and M. E. Harding, Mol. Phys. (2018).

================================================================================
                                        WARNINGS
                       Please study these warnings very carefully!
================================================================================


WARNING: No MP2 level density has been requested!
         To calculate MP2 level properties use
         %mp2 Density relaxed end
         or
         %mp2 Density unrelaxed end
         Otherwise for double-hybrid DFT only the energy is correct!

================================================================================
                                       INPUT FILE
================================================================================
NAME = compas3D_hc_c24h14_0pent_10_dz_riri.inp
|  1> ! RKS revDSD-PBEP86-D4/2021 defgrid3  RIJK NOPOP NoFrozencore NoUseSym
|  2> 
|  3> %basis
|  4> Basis "def2-SVP"
|  5> AuxJK "def2-SVP/C"
|  6> AuxC "def2-SVP/C"
|  7> end
|  8> 
|  9> %method
| 10> ScalHFX 0.69
| 11> ScalDFX 0.31
| 12> ScalDFC 0.4038
| 13> ScalLDAC 0.4038
| 14> 
| 15> D4S6 0.4612
| 16> D4S8 0.0
| 17> D4A1 0.44
| 18> D4A2 3.60
| 19> end
| 20> 
| 21> %mp2
| 22> PS 0.5979
| 23> PT 0.0571
| 24> end
| 25> 
| 26> %pal
| 27> nprocs 104
| 28> end
| 29> 
| 30> *XYZFILE 0 1 /scratch/kx58/rs2200/dhdft/inputs/compas3D-xyzs/hc_c24h14_0pent_10.xyz
| 31> 
| 32>                          ****END OF INPUT****
================================================================================

                       ****************************
                       * Single Point Calculation *
                       ****************************

---------------------------------
CARTESIAN COORDINATES (ANGSTROEM)
---------------------------------
  C      1.434941   -0.687228    0.006909
  C      0.038776   -0.882262   -0.006787
  C     -0.850593    0.237601   -0.004540
  C     -0.344451    1.553262    0.011792
  C      1.067634    1.719266    0.026057
  C      1.916384    0.650590    0.023627
  C      2.322631   -1.828833    0.003566
  C      1.764065   -3.135474   -0.012571
  C      0.352753   -3.295006   -0.025355
  C     -0.499337   -2.220542   -0.023163
  C     -1.937506   -2.397644   -0.037066
  C     -2.774321   -1.344037   -0.035353
  C     -2.275966    0.016545   -0.019203
  C     -3.129663    1.089685   -0.017453
  C     -2.654577    2.428082   -0.001344
  C     -1.255448    2.676315    0.013555
  C      3.733649   -1.709035    0.015329
  C      4.546562   -2.818253    0.011222
  C      3.987450   -4.112706   -0.004588
  C      2.623487   -4.263198   -0.016079
  C     -3.558478    3.520376    0.000160
  C     -3.102971    4.814719    0.015733
  C     -1.715545    5.066252    0.030413
  C     -0.819189    4.023436    0.029337
  H      1.494446    2.720942    0.039364
  H      2.988756    0.839147    0.035014
  H     -0.059513   -4.306891   -0.037566
  H     -2.325907   -3.418338   -0.049182
  H     -3.856549   -1.490821   -0.046026
  H     -4.208680    0.917632   -0.028622
  H      4.195242   -0.722493    0.027735
  H      5.631390   -2.695354    0.020210
  H      4.639238   -4.988566   -0.007680
  H      2.175381   -5.259412   -0.028381
  H     -4.630266    3.309537   -0.011330
  H     -3.808140    5.648245    0.016762
  H     -1.349951    6.094948    0.042677
  H      0.246264    4.249515    0.040825

----------------------------
CARTESIAN COORDINATES (A.U.)
----------------------------
  NO LB      ZA    FRAG     MASS         X           Y           Z
   0 C     6.0000    0    12.011    2.711645   -1.298673    0.013055
   1 C     6.0000    0    12.011    0.073277   -1.667234   -0.012825
   2 C     6.0000    0    12.011   -1.607387    0.449001   -0.008579
   3 C     6.0000    0    12.011   -0.650918    2.935240    0.022284
   4 C     6.0000    0    12.011    2.017536    3.248942    0.049241
   5 C     6.0000    0    12.011    3.621441    1.229436    0.044649
   6 C     6.0000    0    12.011    4.389137   -3.455993    0.006738
   7 C     6.0000    0    12.011    3.333600   -5.925188   -0.023755
   8 C     6.0000    0    12.011    0.666607   -6.226660   -0.047914
   9 C     6.0000    0    12.011   -0.943610   -4.196217   -0.043771
  10 C     6.0000    0    12.011   -3.661356   -4.530890   -0.070044
  11 C     6.0000    0    12.011   -5.242708   -2.539862   -0.066807
  12 C     6.0000    0    12.011   -4.300952    0.031266   -0.036289
  13 C     6.0000    0    12.011   -5.914205    2.059206   -0.032981
  14 C     6.0000    0    12.011   -5.016423    4.588410   -0.002539
  15 C     6.0000    0    12.011   -2.372452    5.057502    0.025615
  16 C     6.0000    0    12.011    7.055573   -3.229608    0.028968
  17 C     6.0000    0    12.011    8.591756   -5.325727    0.021207
  18 C     6.0000    0    12.011    7.535188   -7.771889   -0.008669
  19 C     6.0000    0    12.011    4.957673   -8.056276   -0.030384
  20 C     6.0000    0    12.011   -6.724549    6.652546    0.000302
  21 C     6.0000    0    12.011   -5.863766    9.098500    0.029732
  22 C     6.0000    0    12.011   -3.241910    9.573829    0.057473
  23 C     6.0000    0    12.011   -1.548042    7.603192    0.055439
  24 H     1.0000    0     1.008    2.824095    5.141834    0.074387
  25 H     1.0000    0     1.008    5.647930    1.585759    0.066167
  26 H     1.0000    0     1.008   -0.112463   -8.138845   -0.070990
  27 H     1.0000    0     1.008   -4.395327   -6.459723   -0.092940
  28 H     1.0000    0     1.008   -7.287822   -2.817243   -0.086977
  29 H     1.0000    0     1.008   -7.953252    1.734072   -0.054087
  30 H     1.0000    0     1.008    7.927859   -1.365315    0.052411
  31 H     1.0000    0     1.008   10.641785   -5.093482    0.038191
  32 H     1.0000    0     1.008    8.766890   -9.427023   -0.014514
  33 H     1.0000    0     1.008    4.110875   -9.938848   -0.053633
  34 H     1.0000    0     1.008   -8.749935    6.254119   -0.021411
  35 H     1.0000    0     1.008   -7.196342   10.673637    0.031677
  36 H     1.0000    0     1.008   -2.551037   11.517783    0.080647
  37 H     1.0000    0     1.008    0.465371    8.030419    0.077147

--------------------------------
INTERNAL COORDINATES (ANGSTROEM)
--------------------------------
 C      0   0   0     0.000000000000     0.00000000     0.00000000
 C      1   0   0     1.409787865211     0.00000000     0.00000000
 C      2   1   0     1.430061583381   120.50076577     0.00000000
 C      3   2   1     1.409755569896   120.50114625     0.00000000
 C      4   3   2     1.421880932566   117.75084172     0.00000000
 C      5   4   3     1.364716714328   121.74892588     0.02806579
 C      1   2   3     1.446121343371   119.91247696   180.04068051
 C      7   1   2     1.421115223456   118.98578320   359.95202662
 C      8   7   1     1.420357572136   119.59839168     0.00000000
 C      9   8   7     1.371326060115   121.96403772     0.02550536
 C     10   9   8     1.449099682628   121.39279320   179.96514103
 C     11  10   9     1.345492076555   121.43524486   180.02123901
 C      3   2   1     1.442487219813   119.63744746   179.97768525
 C     13   3   2     1.371287292283   119.68460330   180.01875533
 C     14  13   3     1.420307551522   121.95279687     0.00000000
 C     15  14  13     1.421057319391   119.60776872     0.00000000
 C      7   1   2     1.416142437914   123.01239801   179.93531609
 C     17   7   1     1.375212689965   121.38068517   180.02355724
 C     18  17   7     1.410129221371   120.40245968     0.00000000
 C     19  18  17     1.372287535583   119.66011448     0.00000000
 C     15  14  13     1.417795887664   120.84681848   180.00177850
 C     21  15  14     1.372243925642   121.00187962   179.99853404
 C     22  21  15     1.410119320391   119.66779627     0.00000000
 C     23  22  21     1.375107949728   120.40261503     0.00000000
 H      5   4   3     1.088898544422   119.78764151   180.03015411
 H      6   5   4     1.088882159184   118.48135273   179.99793356
 H      9   8   7     1.092713894766   118.61975169   180.00724308
 H     11  10   9     1.092162335595   117.85700373     0.00000000
 H     12  11  10     1.092189019213   120.73152958   179.99407402
 H     14  13   3     1.092705409441   119.44039562   179.99834490
 H     17   7   1     1.089260021212   119.93030719     0.00000000
 H     18  17   7     1.091804946212   119.77028180   179.97934594
 H     19  18  17     1.091772384925   119.98343691   180.00473329
 H     20  19  18     1.092425098249   120.51778262   179.99983023
 H     21  15  14     1.092389668598   118.47722315     0.00000000
 H     22  21  15     1.091801551356   120.37901456   180.00130404
 H     23  22  21     1.091798609928   119.84468146   179.99117482
 H     24  23  22     1.089234868718   118.69856995   179.99554687

---------------------------
INTERNAL COORDINATES (A.U.)
---------------------------
 C      0   0   0     0.000000000000     0.00000000     0.00000000
 C      1   0   0     2.664112972173     0.00000000     0.00000000
 C      2   1   0     2.702424747231   120.50076577     0.00000000
 C      3   2   1     2.664051942873   120.50114625     0.00000000
 C      4   3   2     2.686965557594   117.75084172     0.00000000
 C      5   4   3     2.578940840465   121.74892588     0.02806579
 C      1   2   3     2.732773295389   119.91247696   180.04068051
 C      7   1   2     2.685518577078   118.98578320   359.95202662
 C      8   7   1     2.684086823578   119.59839168     0.00000000
 C      9   8   7     2.591430693927   121.96403772     0.02550536
 C     10   9   8     2.738401540918   121.39279320   179.96514103
 C     11  10   9     2.542611540050   121.43524486   180.02123901
 C      3   2   1     2.725905797127   119.63744746   179.97768525
 C     13   3   2     2.591357433341   119.68460330   180.01875533
 C     14  13   3     2.683992298316   121.95279687     0.00000000
 C     15  14  13     2.685409154253   119.60776872     0.00000000
 C      7   1   2     2.676121374280   123.01239801   179.93531609
 C     17   7   1     2.598775359927   121.38068517   180.02355724
 C     18  17   7     2.664758041831   120.40245968     0.00000000
 C     19  18  17     2.593247619245   119.66011448     0.00000000
 C     15  14  13     2.679245941484   120.84681848   180.00177850
 C     21  15  14     2.593165208401   121.00187962   179.99853404
 C     22  21  15     2.664739331690   119.66779627     0.00000000
 C     23  22  21     2.598577429564   120.40261503     0.00000000
 H      5   4   3     2.057720036584   119.78764151   180.03015411
 H      6   5   4     2.057689072971   118.48135273   179.99793356
 H      9   8   7     2.064930003838   118.61975169   180.00724308
 H     11  10   9     2.063887708058   117.85700373     0.00000000
 H     12  11  10     2.063938132789   120.73152958   179.99407402
 H     14  13   3     2.064913968897   119.44039562   179.99834490
 H     17   7   1     2.058403128719   119.93030719     0.00000000
 H     18  17   7     2.063212340001   119.77028180   179.97934594
 H     19  18  17     2.063150808086   119.98343691   180.00473329
 H     20  19  18     2.064384257513   120.51778262   179.99983023
 H     21  15  14     2.064317305175   118.47722315     0.00000000
 H     22  21  15     2.063205924654   120.37901456   180.00130404
 H     23  22  21     2.063200366160   119.84468146   179.99117482
 H     24  23  22     2.058355597394   118.69856995   179.99554687

---------------------
BASIS SET INFORMATION
---------------------
There are 2 groups of distinct atoms

 Group   1 Type C   : 7s4p1d contracted to 3s2p1d pattern {511/31/1}
 Group   2 Type H   : 4s1p contracted to 2s1p pattern {31/1}

Atom   0C    basis set group =>   1
Atom   1C    basis set group =>   1
Atom   2C    basis set group =>   1
Atom   3C    basis set group =>   1
Atom   4C    basis set group =>   1
Atom   5C    basis set group =>   1
Atom   6C    basis set group =>   1
Atom   7C    basis set group =>   1
Atom   8C    basis set group =>   1
Atom   9C    basis set group =>   1
Atom  10C    basis set group =>   1
Atom  11C    basis set group =>   1
Atom  12C    basis set group =>   1
Atom  13C    basis set group =>   1
Atom  14C    basis set group =>   1
Atom  15C    basis set group =>   1
Atom  16C    basis set group =>   1
Atom  17C    basis set group =>   1
Atom  18C    basis set group =>   1
Atom  19C    basis set group =>   1
Atom  20C    basis set group =>   1
Atom  21C    basis set group =>   1
Atom  22C    basis set group =>   1
Atom  23C    basis set group =>   1
Atom  24H    basis set group =>   2
Atom  25H    basis set group =>   2
Atom  26H    basis set group =>   2
Atom  27H    basis set group =>   2
Atom  28H    basis set group =>   2
Atom  29H    basis set group =>   2
Atom  30H    basis set group =>   2
Atom  31H    basis set group =>   2
Atom  32H    basis set group =>   2
Atom  33H    basis set group =>   2
Atom  34H    basis set group =>   2
Atom  35H    basis set group =>   2
Atom  36H    basis set group =>   2
Atom  37H    basis set group =>   2
---------------------------------
AUXILIARY/C BASIS SET INFORMATION
---------------------------------
There are 2 groups of distinct atoms

 Group   1 Type C   : 8s6p5d3f contracted to 6s5p4d1f pattern {311111/21111/2111/3}
 Group   2 Type H   : 4s3p2d contracted to 3s2p1d pattern {211/21/2}

Atom   0C    basis set group =>   1
Atom   1C    basis set group =>   1
Atom   2C    basis set group =>   1
Atom   3C    basis set group =>   1
Atom   4C    basis set group =>   1
Atom   5C    basis set group =>   1
Atom   6C    basis set group =>   1
Atom   7C    basis set group =>   1
Atom   8C    basis set group =>   1
Atom   9C    basis set group =>   1
Atom  10C    basis set group =>   1
Atom  11C    basis set group =>   1
Atom  12C    basis set group =>   1
Atom  13C    basis set group =>   1
Atom  14C    basis set group =>   1
Atom  15C    basis set group =>   1
Atom  16C    basis set group =>   1
Atom  17C    basis set group =>   1
Atom  18C    basis set group =>   1
Atom  19C    basis set group =>   1
Atom  20C    basis set group =>   1
Atom  21C    basis set group =>   1
Atom  22C    basis set group =>   1
Atom  23C    basis set group =>   1
Atom  24H    basis set group =>   2
Atom  25H    basis set group =>   2
Atom  26H    basis set group =>   2
Atom  27H    basis set group =>   2
Atom  28H    basis set group =>   2
Atom  29H    basis set group =>   2
Atom  30H    basis set group =>   2
Atom  31H    basis set group =>   2
Atom  32H    basis set group =>   2
Atom  33H    basis set group =>   2
Atom  34H    basis set group =>   2
Atom  35H    basis set group =>   2
Atom  36H    basis set group =>   2
Atom  37H    basis set group =>   2
----------------------------------
AUXILIARY/JK BASIS SET INFORMATION
----------------------------------
There are 2 groups of distinct atoms

 Group   1 Type C   : 8s6p5d3f contracted to 6s5p4d1f pattern {311111/21111/2111/3}
 Group   2 Type H   : 4s3p2d contracted to 3s2p1d pattern {211/21/2}

Atom   0C    basis set group =>   1
Atom   1C    basis set group =>   1
Atom   2C    basis set group =>   1
Atom   3C    basis set group =>   1
Atom   4C    basis set group =>   1
Atom   5C    basis set group =>   1
Atom   6C    basis set group =>   1
Atom   7C    basis set group =>   1
Atom   8C    basis set group =>   1
Atom   9C    basis set group =>   1
Atom  10C    basis set group =>   1
Atom  11C    basis set group =>   1
Atom  12C    basis set group =>   1
Atom  13C    basis set group =>   1
Atom  14C    basis set group =>   1
Atom  15C    basis set group =>   1
Atom  16C    basis set group =>   1
Atom  17C    basis set group =>   1
Atom  18C    basis set group =>   1
Atom  19C    basis set group =>   1
Atom  20C    basis set group =>   1
Atom  21C    basis set group =>   1
Atom  22C    basis set group =>   1
Atom  23C    basis set group =>   1
Atom  24H    basis set group =>   2
Atom  25H    basis set group =>   2
Atom  26H    basis set group =>   2
Atom  27H    basis set group =>   2
Atom  28H    basis set group =>   2
Atom  29H    basis set group =>   2
Atom  30H    basis set group =>   2
Atom  31H    basis set group =>   2
Atom  32H    basis set group =>   2
Atom  33H    basis set group =>   2
Atom  34H    basis set group =>   2
Atom  35H    basis set group =>   2
Atom  36H    basis set group =>   2
Atom  37H    basis set group =>   2


           ************************************************************
           *        Program running with 104 parallel MPI-processes   *
           *              working on a common directory               *
           ************************************************************
------------------------------------------------------------------------------
                             ORCA STARTUP CALCULATIONS
                           -- RI-GTO INTEGRALS CHOSEN --
------------------------------------------------------------------------------
------------------------------------------------------------------------------
                   ___                                                        
                  /   \      - P O W E R E D   B Y -                         
                 /     \                                                     
                 |  |  |   _    _      __       _____    __    __             
                 |  |  |  | |  | |    /  \     |  _  \  |  |  /  |          
                  \  \/   | |  | |   /    \    | | | |  |  | /  /          
                 / \  \   | |__| |  /  /\  \   | |_| |  |  |/  /          
                |  |  |   |  __  | /  /__\  \  |    /   |      \           
                |  |  |   | |  | | |   __   |  |    \   |  |\   \          
                \     /   | |  | | |  |  |  |  | |\  \  |  | \   \       
                 \___/    |_|  |_| |__|  |__|  |_| \__\ |__|  \__/        
                                                                              
                      - O R C A' S   B I G   F R I E N D -                    
                                      &                                       
                       - I N T E G R A L  F E E D E R -                       
                                                                              
 v1 FN, 2020, v2 2021, v3 2022-2024                                           
------------------------------------------------------------------------------


----------------------
SHARK INTEGRAL PACKAGE
----------------------

Number of atoms                             ...     38
Number of basis functions                   ...    406
Number of shells                            ...    186
Maximum angular momentum                    ...      2
Integral batch strategy                     ... SHARK/LIBINT Hybrid
RI-J (if used) integral strategy            ... SPLIT-RIJ (Revised 2003 algorithm where possible)
Printlevel                                  ...      1
Contraction scheme used                     ... SEGMENTED contraction
Prescreening option                         ... SCHWARTZ
   Thresh                                   ... 1.000e-10
   Tcut                                     ... 1.000e-11
   Tpresel                                  ... 1.000e-11 
Coulomb Range Separation                    ... NOT USED
Exchange Range Separation                   ... NOT USED
Multipole approximations                    ... NOT USED
Finite Nucleus Model                        ... NOT USED
CABS basis                                  ... NOT available
Auxiliary Coulomb fitting basis             ... NOT available
Auxiliary J/K fitting basis                 ... AVAILABLE
   # of basis functions in Aux-JK           ...   1348
   # of shells in Aux-JK                    ...    468
   Maximum angular momentum in Aux-JK       ...      3
Auxiliary Correlation fitting basis         ... AVAILABLE
   # of basis functions in Aux-C            ...   1348
   # of shells in Aux-C                     ...    468
   Maximum angular momentum in Aux-C        ...      3
Auxiliary 'external' fitting basis          ... NOT available

Checking pre-screening integrals            ... done (  0.0 sec) Dimension = 186
Check shell pair data                       ... done (  0.0 sec)
Shell pair information
Shell pair cut-off parameter TPreSel        ...   1.0e-11
Total number of shell pairs                 ...     17391
Shell pairs after pre-screening             ...     12317
Total number of primitive shell pairs       ...     64615
Primitive shell pairs kept                  ...     29351
          la=0 lb=0:   3585 shell pairs
          la=1 lb=0:   4497 shell pairs
          la=1 lb=1:   1477 shell pairs
          la=2 lb=0:   1572 shell pairs
          la=2 lb=1:   1013 shell pairs
          la=2 lb=2:    173 shell pairs

Calculating one electron integrals          ... done (  0.6 sec)
Calculating RI/JK V-Matrix + Cholesky decomp... done (  0.3 sec)
Calculating RI/C V-Matrix + Cholesky decomp.... done (  0.4 sec)
Calculating Nuclear repulsion               ... done (  0.0 sec) ENN=   1778.052719287009 Eh

Diagonalization of the overlap matrix:
Smallest eigenvalue                        ... 1.437e-04
Time for diagonalization                   ...    0.022 sec
Threshold for overlap eigenvalues          ... 1.000e-07
Number of eigenvalues below threshold      ... 0
Time for construction of square roots      ...    0.012 sec
Total time needed                          ...    0.050 sec

-------------------
DFT GRID GENERATION
-------------------

General Integration Accuracy     IntAcc      ... 4.959
Radial Grid Type                 RadialGrid  ... OptM3 with GC (2021)
Angular Grid (max. ang.)         AngularGrid ... 6 (Lebedev-590)
Angular grid pruning method      GridPruning ... 4 (adaptive)
Weight generation scheme         WeightScheme... mBecke (2022)
Basis function cutoff            BFCut       ... 1.0000e-10
Integration weight cutoff        WCut        ... 1.0000e-14
Partially contracted basis set               ... off
Rotationally invariant grid construction     ... off
Angular grids for H and He will be reduced by one unit

Total number of grid points                  ...   457901
Total number of batches                      ...     7175
Average number of points per batch           ...       63
Average number of grid points per atom       ...    12050
Initializing property integral containers    ... done (  0.0 sec)

SHARK setup successfully completed in   5.4 seconds

Maximum memory used throughout the entire STARTUP-calculation: 87.4 MB


           ************************************************************
           *        Program running with 104 parallel MPI-processes   *
           *              working on a common directory               *
           ************************************************************
-------------------------------------------------------------------------------
                                 ORCA GUESS
                   Start orbitals & Density for SCF / CASSCF
-------------------------------------------------------------------------------

------------
SCF SETTINGS
------------
Hamiltonian:
 Density Functional     Method          .... DFT(GTOs)
 Exchange Functional    Exchange        .... PBE
   PBE kappa parameter   XKappa         ....  0.804000
   PBE mue parameter    XMuePBE         ....  0.219520
 Correlation Functional Correlation     .... P86
 LDA part of GGA corr.  LDAOpt          .... VWN-5
 Gradients option       PostSCFGGA      .... off
 Hybrid DFT is turned on
   Fraction HF Exchange ScalHFX         ....  0.690000
   Scaling of DF-GGA-X  ScalDFX         ....  0.310000
   Scaling of DF-GGA-C  ScalDFC         ....  0.403800
   Scaling of DF-LDA-C  ScalLDAC        ....  0.403800
   Perturbative correction              ....  1.000000
 RI-approximation to the Coulomb term is turned on
   Number of AuxJK basis functions      .... 1348
   RI-JK (J+K treated both via RI)      .... on


General Settings:
 Integral files         IntName         .... compas3D_hc_c24h14_0pent_10_dz_riri
 Hartree-Fock type      HFTyp           .... RHF
 Total Charge           Charge          ....    0
 Multiplicity           Mult            ....    1
 Number of Electrons    NEL             ....  158
 Basis Dimension        Dim             ....  406
 Nuclear Repulsion      ENuc            ....   1778.0527192870 Eh

Convergence Acceleration:
 AO-DIIS                CNVDIIS         .... on
   Start iteration      DIISMaxIt       ....    12
   Startup error        DIISStart       ....  0.200000
   # of expansion vecs  DIISMaxEq       ....     5
   Bias factor          DIISBfac        ....   1.050
   Max. coefficient     DIISMaxC        ....  10.000
 MO-DIIS                CNVKDIIS        .... off
 Trust-Rad. Augm. Hess. CNVTRAH         .... auto
   Auto Start mean grad. ratio tolernc. ....  1.125000
   Auto Start start iteration           ....    50
   Auto Start num. interpolation iter.  ....    10
   Max. Number of Micro iterations      ....    24
   Max. Number of Macro iterations      .... Maxiter - #DIIS iter
   Number of Davidson start vectors     ....     2
   Converg. threshold    (grad. norm)   ....   5.000e-05
   Grad. Scal. Fac. for Micro threshold ....   0.100
   Minimum threshold for Micro iter.    ....   1.000e-02
   NR start threshold (gradient norm)   ....   1.000e-04
   Initial trust radius                 ....   0.400
   Minimum AH scaling param. (alpha)    ....   1.000
   Maximum AH scaling param. (alpha)    .... 1000.000
   Quad. conv. algorithm                .... NR
   White noise on init. David. guess    .... on
   Maximum white noise                  ....   0.010
   Pseudo random numbers                .... off
   Inactive MOs                         .... canonical
   Orbital update algorithm             .... Taylor
   Preconditioner                       .... Diag
   Full preconditioner red. dimension   ....   250
 SOSCF                  CNVSOSCF        .... on
   Start iteration      SOSCFMaxIt      ....   150
   Startup grad/error   SOSCFStart      ....  0.003300
   Hessian update       SOSCFHessUp     .... L-BFGS
 Level Shifting         CNVShift        .... on
   Level shift para.    LevelShift      ....    0.2500
   Turn off err/grad.   ShiftErr        ....    0.0010
 Zerner damping         CNVZerner       .... off
 Static damping         CNVDamp         .... on
   Fraction old density DampFac         ....    0.7000
   Max. Damping (<1)    DampMax         ....    0.9800
   Min. Damping (>=0)   DampMin         ....    0.0000
   Turn off err/grad.   DampErr         ....    0.1000

SCF Procedure:
 Maximum # iterations   MaxIter         ....   125
 SCF integral mode      SCFMode         .... Direct
   Integral package                     .... SHARK and LIBINT hybrid scheme
 Reset frequency        DirectResetFreq ....    20
 Integral Threshold     Thresh          ....  1.000e-10 Eh
 Primitive CutOff       TCut            ....  1.000e-11 Eh

Convergence Tolerance:
 Convergence Check Mode ConvCheckMode   .... Total+1el-Energy
 Convergence forced     ConvForced      .... 0
 Energy Change          TolE            ....  1.000e-06 Eh
 1-El. energy change                    ....  1.000e-03 Eh
 Orbital Gradient       TolG            ....  5.000e-05
 Orbital Rotation angle TolX            ....  5.000e-05
 DIIS Error             TolErr          ....  1.000e-06

------------------------------
INITIAL GUESS: MODEL POTENTIAL
------------------------------
Loading Hartree-Fock densities                     ... done
Calculating cut-offs                               ... done
Initializing the effective Hamiltonian             ... done
Setting up the integral package (SHARK)            ... done
Starting the Coulomb interaction                   ... done (   0.1 sec)
Making the grid                                    ... done (   0.3 sec)
Mapping shells                                     ... done
Starting the XC term evaluation                    ... done (   0.0 sec)
  promolecular density results
     # of electrons  =    158.000514929
     EX              =   -126.957263512
     EC              =      0.209303533
     EX+EC           =   -126.747959979
Transforming the Hamiltonian                       ... done (   0.0 sec)
Diagonalizing the Hamiltonian                      ... done (   0.0 sec)
Back transforming the eigenvectors                 ... done (   0.0 sec)
Now organizing SCF variables                       ... done
                      ------------------
                      INITIAL GUESS DONE (   0.6 sec)
                      ------------------
             **** ENERGY FILE WAS UPDATED (compas3D_hc_c24h14_0pent_10_dz_riri.en.tmp) ****
Finished Guess after  15.2 sec
Maximum memory used throughout the entire GUESS-calculation: 29.4 MB


           ************************************************************
           *        Program running with 104 parallel MPI-processes   *
           *              working on a common directory               *
           ************************************************************

-------------------------------------------------------------------------------------------
                                      ORCA LEAN-SCF
                              memory conserving SCF solver
-------------------------------------------------------------------------------------------

----------------------------------------D-I-I-S--------------------------------------------
Iteration    Energy (Eh)           Delta-E    RMSDP     MaxDP     DIISErr   Damp  Time(sec)
-------------------------------------------------------------------------------------------
    1    -918.1815850247387516     0.00e+00  3.74e-03  1.02e-01  1.16e-01  0.700   1.7
    2    -918.0126420885760581     1.69e-01  3.15e-03  8.34e-02  1.07e-01  0.700   1.9
                               ***Turning on AO-DIIS***
    3    -918.0922237841730293    -7.96e-02  2.28e-03  6.01e-02  6.44e-02  0.700   1.9
    4    -918.2628104056764187    -1.71e-01  4.47e-03  1.27e-01  2.86e-02  0.000   1.8
    5    -918.5653337746523448    -3.03e-01  4.87e-04  1.11e-02  3.21e-02  0.000   1.8
    6    -918.5762699562767466    -1.09e-02  3.14e-04  6.77e-03  1.53e-02  0.000   1.7
    7    -918.5795365682913598    -3.27e-03  1.32e-04  3.42e-03  5.65e-03  0.000   1.9
                              *** Initializing SOSCF ***
---------------------------------------S-O-S-C-F--------------------------------------
Iteration    Energy (Eh)           Delta-E    RMSDP     MaxDP     MaxGrad    Time(sec)
--------------------------------------------------------------------------------------
    8    -918.5799651173122129    -4.29e-04  4.39e-05  1.27e-03  1.28e-03     1.8
    9    -918.5799931536078020    -2.80e-05  2.23e-05  4.87e-04  3.38e-04     1.6
   10    -918.5799972584266015    -4.10e-06  1.64e-05  3.82e-04  1.74e-04     1.7
   11    -918.5799983118238288    -1.05e-06  6.18e-06  1.58e-04  6.55e-05     1.7
   12    -918.5799985330074833    -2.21e-07  1.61e-06  4.68e-05  9.10e-06     1.7
                 **** Energy Check signals convergence ****

               *****************************************************
               *                     SUCCESS                       *
               *           SCF CONVERGED AFTER  12 CYCLES          *
               *****************************************************

             **** ENERGY FILE WAS UPDATED (compas3D_hc_c24h14_0pent_10_dz_riri.en.tmp) ****

----------------
TOTAL SCF ENERGY
----------------

Total Energy       :       -918.57999853300748 Eh          -24995.83252 eV

Components:
Nuclear Repulsion  :       1778.05271928700881 Eh           48383.27425 eV
Electronic Energy  :      -2696.63271782001630 Eh          -73379.10677 eV
One Electron Energy:      -4774.64570073873983 Eh         -129924.71476 eV
Two Electron Energy:       2078.01298291872354 Eh           56545.60799 eV

Virial components:
Potential Energy   :      -1830.31099922676822 Eh          -49805.29434 eV
Kinetic Energy     :        911.73100069376062 Eh           24809.46182 eV
Virial Ratio       :          2.00751208178074

DFT components:
N(Alpha)           :       78.999982040297 electrons
N(Beta)            :       78.999982040297 electrons
N(Total)           :      157.999964080594 electrons
E(X)               :      -39.924073375788 Eh       
E(C)               :       -2.353905027701 Eh       
E(XC)              :      -42.277978403490 Eh       

---------------
SCF CONVERGENCE
---------------

  Last Energy change         ...    2.2118e-07  Tolerance :   1.0000e-06
  Last MAX-Density change    ...    4.6828e-05  Tolerance :   1.0000e-05
  Last RMS-Density change    ...    1.6114e-06  Tolerance :   1.0000e-06
  Last DIIS Error            ...    1.2765e-03  Tolerance :   1.0000e-06
  Last Orbital Gradient      ...    9.0996e-06  Tolerance :   5.0000e-05
  Last Orbital Rotation      ...    3.6634e-05  Tolerance :   5.0000e-05


----------------
ORBITAL ENERGIES
----------------

  NO   OCC          E(Eh)            E(eV) 
   0   2.0000     -10.843341      -295.0623 
   1   2.0000     -10.843297      -295.0611 
   2   2.0000     -10.842027      -295.0266 
   3   2.0000     -10.841925      -295.0238 
   4   2.0000     -10.841815      -295.0208 
   5   2.0000     -10.841342      -295.0079 
   6   2.0000     -10.840283      -294.9791 
   7   2.0000     -10.840252      -294.9783 
   8   2.0000     -10.839058      -294.9458 
   9   2.0000     -10.839027      -294.9449 
  10   2.0000     -10.835400      -294.8462 
  11   2.0000     -10.834829      -294.8307 
  12   2.0000     -10.834207      -294.8138 
  13   2.0000     -10.833786      -294.8023 
  14   2.0000     -10.833613      -294.7976 
  15   2.0000     -10.833584      -294.7968 
  16   2.0000     -10.833215      -294.7868 
  17   2.0000     -10.833201      -294.7864 
  18   2.0000     -10.833106      -294.7838 
  19   2.0000     -10.833087      -294.7833 
  20   2.0000     -10.832473      -294.7666 
  21   2.0000     -10.832449      -294.7659 
  22   2.0000     -10.831863      -294.7500 
  23   2.0000     -10.831848      -294.7496 
  24   2.0000      -1.085430       -29.5360 
  25   2.0000      -1.058932       -28.8150 
  26   2.0000      -1.033044       -28.1105 
  27   2.0000      -1.010387       -27.4940 
  28   2.0000      -0.993675       -27.0393 
  29   2.0000      -0.950386       -25.8613 
  30   2.0000      -0.948812       -25.8185 
  31   2.0000      -0.916672       -24.9439 
  32   2.0000      -0.911742       -24.8098 
  33   2.0000      -0.904914       -24.6240 
  34   2.0000      -0.874758       -23.8034 
  35   2.0000      -0.859042       -23.3757 
  36   2.0000      -0.785316       -21.3695 
  37   2.0000      -0.781162       -21.2565 
  38   2.0000      -0.771901       -21.0045 
  39   2.0000      -0.756657       -20.5897 
  40   2.0000      -0.732229       -19.9250 
  41   2.0000      -0.729405       -19.8481 
  42   2.0000      -0.696293       -18.9471 
  43   2.0000      -0.662227       -18.0201 
  44   2.0000      -0.645951       -17.5772 
  45   2.0000      -0.645011       -17.5516 
  46   2.0000      -0.630998       -17.1703 
  47   2.0000      -0.618531       -16.8311 
  48   2.0000      -0.585287       -15.9265 
  49   2.0000      -0.580795       -15.8042 
  50   2.0000      -0.576609       -15.6903 
  51   2.0000      -0.575986       -15.6734 
  52   2.0000      -0.553937       -15.0734 
  53   2.0000      -0.545717       -14.8497 
  54   2.0000      -0.532302       -14.4847 
  55   2.0000      -0.531378       -14.4595 
  56   2.0000      -0.527425       -14.3520 
  57   2.0000      -0.518650       -14.1132 
  58   2.0000      -0.506771       -13.7900 
  59   2.0000      -0.501421       -13.6444 
  60   2.0000      -0.498123       -13.5546 
  61   2.0000      -0.495018       -13.4701 
  62   2.0000      -0.486366       -13.2347 
  63   2.0000      -0.477981       -13.0065 
  64   2.0000      -0.462774       -12.5927 
  65   2.0000      -0.452539       -12.3142 
  66   2.0000      -0.442234       -12.0338 
  67   2.0000      -0.436892       -11.8884 
  68   2.0000      -0.430079       -11.7030 
  69   2.0000      -0.424757       -11.5582 
  70   2.0000      -0.407194       -11.0803 
  71   2.0000      -0.403379       -10.9765 
  72   2.0000      -0.362264        -9.8577 
  73   2.0000      -0.348140        -9.4734 
  74   2.0000      -0.320123        -8.7110 
  75   2.0000      -0.315698        -8.5906 
  76   2.0000      -0.298888        -8.1332 
  77   2.0000      -0.263219        -7.1626 
  78   2.0000      -0.230471        -6.2714 
  79   0.0000      -0.005732        -0.1560 
  80   0.0000       0.018470         0.5026 
  81   0.0000       0.059920         1.6305 
  82   0.0000       0.063824         1.7367 
  83   0.0000       0.077476         2.1082 
  84   0.0000       0.119764         3.2589 
  85   0.0000       0.120027         3.2661 
  86   0.0000       0.135918         3.6985 
  87   0.0000       0.140251         3.8164 
  88   0.0000       0.141987         3.8637 
  89   0.0000       0.154464         4.2032 
*Only the first 10 virtual orbitals were printed.
-------
TIMINGS
-------

Total SCF time: 0 days 0 hours 0 min 36 sec 

Total time                  ....      36.528 sec
Sum of individual times     ....      36.330 sec  ( 99.5%)

SCF preparation             ....      14.762 sec  ( 40.4%)
Fock matrix formation       ....      16.237 sec  ( 44.4%)
  Startup                   ....       1.289 sec  (  7.9% of F)
  RI-JK                     ....       8.743 sec  ( 53.8% of F)
  XC integration            ....       3.979 sec  ( 24.5% of F)
    XC Preparation          ....       0.000 sec  (  0.0% of XC)
    Basis function eval.    ....       0.282 sec  (  7.1% of XC)
    Density eval.           ....       0.181 sec  (  4.6% of XC)
    XC-Functional eval.     ....       0.044 sec  (  1.1% of XC)
    XC-Potential eval.      ....       0.263 sec  (  6.6% of XC)
Diagonalization             ....       0.000 sec  (  0.0%)
Density matrix formation    ....       1.292 sec  (  3.5%)
Total Energy calculation    ....       0.815 sec  (  2.2%)
Population analysis         ....       0.000 sec  (  0.0%)
Orbital Transformation      ....       0.327 sec  (  0.9%)
Orbital Orthonormalization  ....       0.000 sec  (  0.0%)
DIIS solution               ....       2.101 sec  (  5.8%)
SOSCF solution              ....       0.723 sec  (  2.0%)
Finished LeanSCF after  36.9 sec

Maximum memory used throughout the entire LEANSCF-calculation: 85.0 MB


           ************************************************************
           *        Program running with 104 parallel MPI-processes   *
           *              working on a common directory               *
           ************************************************************

------------------------------------------------------------------------------
                                ORCA  MP2 
------------------------------------------------------------------------------


-------------
RI-MP2 ENERGY
-------------
Dimension of the orbital basis            ...  406
Dimension of the AuxC basis               ... 1348
Memory devoted to MP2                     ... 4096 MB   
Data format for matrix containers         ... DOUBLE
Compression type for matrix containers    ... UNCOMPRESSED
Scaling for aa/bb pairs                   ...   5.710e-02
Scaling for ab pairs                      ...   5.979e-01
Overall scaling of the MP2 energy         ...   1.000e+00

-----------------------
SHARK RI TRANSFORMATION
-----------------------

Number of basis functions                ...    406
Number of aux functions                  ...   1348
Number of operators                      ...      1
Generation of IJK                        ... NO
Generation of IAK                        ... YES
Generation of ABK                        ... NO
Orbital Range Operator  0:    0-  78 to   79- 405

Aux basis identifier                     ...   AUXC
Contraction scheme used                  ... SEGMENTED
Do orthogonalization                     ... YES
All operator combinations                ... NO
Transpose (ia|K)                         ... NO
Integral generator used                  ... LIBINT
Starting integral generation + trafo... 
Half trafo (segmented) done. Total time =  0.3 sec. integrals=  0.1 sec trafo=  0.0 sec
Integral generation and half transformation done (  0.3 sec)

Reading or making V^(-1/2)          ... done (  0.1 sec)
Sorting IAK integrals               ... done (  1.2 sec)

SHARK RI integral transformation done. Total time =  1.6 sec.

Opening buffers                              ... done

Starting loop over batches of integrals:

Operator 0  - window                       ... (  0- 78)x( 79-405)
Operator 0  - Memory available             ...  4096 MB
Operator 0  - Memory needed per MO         ...   3.4 MB
Operator 0  - Number of orbitals per batch ... 1
Operator 0  - Number of batches            ... 1

OPERATOR  0   PASS   0:  MOs     0 ...    0 +    1 ...    1 +    2 ...    2 +    3 ...    3
                            +    4 ...    4 +    5 ...    5 +    6 ...    6 +    7 ...    7
                            +    8 ...    8 +    9 ...    9 +   10 ...   10 +   11 ...   11
                            +   12 ...   12 +   13 ...   13 +   14 ...   14 +   15 ...   15
                            +   16 ...   16 +   17 ...   17 +   18 ...   18 +   19 ...   19
                            +   20 ...   20 +   21 ...   21 +   22 ...   22 +   23 ...   23
                            +   24 ...   24 +   25 ...   25 +   26 ...   26 +   27 ...   27
                            +   28 ...   28 +   29 ...   29 +   30 ...   30 +   31 ...   31
                            +   32 ...   32 +   33 ...   33 +   34 ...   34 +   35 ...   35
                            +   36 ...   36 +   37 ...   37 +   38 ...   38 +   39 ...   39
                            +   40 ...   40 +   41 ...   41 +   42 ...   42 +   43 ...   43
                            +   44 ...   44 +   45 ...   45 +   46 ...   46 +   47 ...   47
                            +   48 ...   48 +   49 ...   49 +   50 ...   50 +   51 ...   51
                            +   52 ...   52 +   53 ...   53 +   54 ...   54 +   55 ...   55
                            +   56 ...   56 +   57 ...   57 +   58 ...   58 +   59 ...   59
                            +   60 ...   60 +   61 ...   61 +   62 ...   62 +   63 ...   63
                            +   64 ...   64 +   65 ...   65 +   66 ...   66 +   67 ...   67
                            +   68 ...   68 +   69 ...   69 +   70 ...   70 +   71 ...   71
                            +   72 ...   72 +   73 ...   73 +   74 ...   74 +   75 ...   75
                            +   76 ...   76 +   77 ...   77 +   78 ...   78
  Reading integrals       ... ok
Time spent in pair loops =     0.751 sec

-----------------------------------------------
 RI-MP2 CORRELATION ENERGY:     -1.608926991 Eh
-----------------------------------------------


-------
TIMINGS
-------

Total time                :    2.953 sec
Integral trafo            :    1.736 sec ( 58.8%)
K(i,j) operators          :    0.007 sec (  0.2%)
T(i,j) pair energies      :    0.001 sec (  0.0%)
V**(-1/2)                 :    0.463 sec ( 15.7%)


---------------------------------------
MP2 TOTAL ENERGY:     -920.188925524 Eh
---------------------------------------

Maximum memory used throughout the entire MP2-calculation: 38.2 MB


-------------------------------------------------------------------------------
                          DFT DISPERSION CORRECTION                            
                                                                               
                                DFTD4 V3.4.0                                   
-------------------------------------------------------------------------------
The REV-DSD-PBEP86-2021 functional is recognized
A user input s6-coefficient scaling factor has been recognized
A user input a1-coefficient scaling factor has been recognized
A user input s8-coefficient scaling factor has been recognized
A user input a2-coefficient scaling factor has been recognized
A user input s9-coefficient scaling factor has been recognized
Active option DFTDOPT                   ...         5   

-------------------------   ----------------
Dispersion correction           -0.037841902
-------------------------   ----------------


-------------------------   --------------------
FINAL SINGLE POINT ENERGY      -920.226767425957
-------------------------   --------------------



           ************************************************************
           *        Program running with 104 parallel MPI-processes   *
           *              working on a common directory               *
           ************************************************************

------------------------------------------------------------------------------
                              ORCA PROPERTY CALCULATIONS
------------------------------------------------------------------------------

GBWName                                 ... compas3D_hc_c24h14_0pent_10_dz_riri.gbw
Number of atoms                         ...     38
Number of basis functions               ...    406
Max core memory                         ...   1024 MB

Electric properties:
Dipole moment                           ... YES
Quadrupole moment                       ...  NO
Static polarizability (Dipole/Dipole)   ...  NO
Static polarizability (Dipole/Quad.)    ...  NO
Static polarizability (Quad./Quad.)     ...  NO
Static polarizability (Velocity)        ...  NO

Atomic electric properties:
Dipole moment                           ...  NO
Quadrupole moment                       ...  NO
Static polarizability                   ...  NO

Choice of electric origin               ... Center of mass
Position of electric origin             ...    -0.077671    -0.061757    -0.001099

General magnetic properties:
Magnetizability                         ...  NO

EPR properties:
g-Tensor (aka g-matrix)                 ...  NO
Zero-Field splitting spin-orbit         ...  NO
Zero-field splitting spin-spin          ...  NO
Hyperfine couplings                     ...  NO (   0 nuclei)
Quadrupole couplings                    ...  NO (   0 nuclei)
Contact density                         ...  NO (   0 nuclei)

NMR properties:
Chemical shifts                         ...  NO (   0 nuclei)
Spin-rotation constants                 ...  NO (   0 nuclei)
Spin-spin couplings                     ...  NO (   0 nuclei,    0 pairs)

Choice of magnetic origin               ... GIAO
Position of magnetic origin             ...     0.000000     0.000000     0.000000

Properties with geometric perturbations:
SCF Hessian                             ...  NO
IR spectrum                             ...  NO
VCD spectrum                            ...  NO
X-ray spectroscopy properties:
SCF XES/XAS/RIXS spectra                ...  NO


-------------
DIPOLE MOMENT
-------------

Method             : SCF
Type of density    : Electron Density
Multiplicity       :   1
Irrep              :   0
Energy             :  -918.5799985330074833 Eh
Relativity type    : 
Basis              : AO
                                X                 Y                 Z
Electronic contribution:     -1.569788667      -1.246476196      -0.020437620
Nuclear contribution   :      1.601595409       1.271804270       0.020583799
                        -----------------------------------------
Total Dipole Moment    :      0.031806743       0.025328074       0.000146180
                        -----------------------------------------
Magnitude (a.u.)       :      0.040659582
Magnitude (Debye)      :      0.103348444



--------------------
Rotational spectrum 
--------------------
 
Rotational constants in cm-1:             0.021909             0.004969             0.004050 
Rotational constants in MHz :           656.819463           148.953879           121.418538 

Dipole components along the rotational axes: 
x,y,z [a.u.] :    -0.000052     0.040658    -0.000347 
x,y,z [Debye]:    -0.000132     0.103345    -0.000881 

 

Dipole moment calculation done in   0.1 sec 

Maximum memory used throughout the entire PROP-calculation: 22.7 MB

--------------------------------
SUGGESTED CITATIONS FOR THIS RUN
--------------------------------

Below you find a list of papers that are relevant to this ORCA run
We neither can nor want to force you to cite these papers, but we appreciate if you do
You receive ORCA, which is the product of decades of hard work by many enthusiastic individuals, for free
The only thing we kindly ask in return is that you cite our papers,
We deeply appreciate it, if you show your appreciation for ORCA by not just citing the generic ORCA reference.

Please note that relegating all ORCA citations to the supporting information does *not* help us.
SI sections are not indexed - citations you put there will not count into any citation statistics
But we need these citations in order to attract the funding resources that allow us to do what we are doing

Therefore, if you are a happy ORCA user, please consider citing a few of the papers listed below in the main body of your paper

In addition to the list printed below, the program has created the file compas3D_hc_c24h14_0pent_10_dz_riri.bibtex that contains the list in bibtex format
You can import this file easily into all common literature databanks and citation aid programs


List of essential papers. We consider these as the minimum necessary citations

  1. Neese,F.
     Software update: the ORCA program system, version 5.0
     WIRES Comput. Molec. Sci., 2022 12(1)e1606
     doi.org/10.1002/wcms.1606

List of papers to cite with high priority. The work reported in these papers was absolutely
necessary for this run to complete.
Our perspective: the developers of density functionals and basis sets usually get cited in chemistry papers
Good! But without the algorithms to do something with them, the functionals or basis sets would not do anything.
Hence, in our opinion, the algorithm design and method developments papers are equally worthy of getting cited

  1. Neese,F.
     An improvement of the resolution of the identity approximation for the formation of the Coulomb matrix
     J. Comp. Chem., 2003 24(14)1740-1747
     doi.org/10.1002/jcc.10318
  2. Kossmann,S.; Neese,F.
     Comparison of two efficient approximate Hartee-Fock approaches
     Chem. Phys. Lett., 2009 481 240-243
     doi.org/10.1016/j.cplett.2009.09.073
  3. Neese,F.
     The SHARK Integral Generation and Digestion System
     J. Comp. Chem., 2022  1-16
     doi.org/10.1002/jcc.26942
  4. Caldeweyher,E.; Bannwarth,C.; Grimme,S.
     Extension of the D3 dispersion coefficient model
     J. Chem. Phys., 2017 147 034112
     doi.org/10.1063/1.4993215
  5. Caldeweyher,E.; Ehlert,S.; Hansen,A.; Neugebauer,H.; Spicher,S.; Bannwarth,C.; Grimme,S.
     A generally applicable atomic-charge dependent London dispersion correction
     J. Chem. Phys., 2019 150 154122
     doi.org/10.1063/1.5090222
  6. Caldeweyher,E.; Mewes,J.; Ehlert,S.; Grimme,S.
     Extension and evaluation of the D4 London-dispersion model for periodic systems
     Phys. Chem. Chem. Phys., 2020 22(16)8499-8512
     doi.org/10.1039/D0CP00502A
  7. Wittmann,L.; Gordiy,I.; Friede,M.; Helmich-Paris,B.; Grimme,S.; Hansen,A.; Bursch,M.
     Extension of the D3 and D4 London Dispersion Corrections to the full Actinides Series
     Phys. Chem. Chem. Phys., 2024 26(32)21379-21394
     doi.org/https://doi.org/10.1039/D4CP01514B 

List of suggested additional citations. These are papers that are important in the 'surrounding' of 
of this run, or papers that preceded the highly important papers. If you like your results we are grateful for a citation.

  1. Neese,F.
     The ORCA program system
     WIRES Comput. Molec. Sci., 2012 2(1)73-78
     doi.org/10.1002/wcms.81
  2. Neese,F.
     Software update: the ORCA program system, version 4.0
     WIRES Comput. Molec. Sci., 2018 8(1)1-6
     doi.org/10.1002/wcms.1327
  3. Neese,F.; Wennmohs,F.; Becker,U.; Riplinger,C.
     The ORCA quantum chemistry program package
     J. Chem. Phys., 2020 152 Art. No. L224108
     doi.org/10.1063/5.0004608

List of optional additional citations

  1. Neese,F.
     Approximate second-order SCF convergence for spin unrestricted wavefunctions
     Chem. Phys. Lett., 2000 325(1-3)93-98
     doi.org/10.1016/s0009-2614(00)00662-x

Timings for individual modules:

Sum of individual times          ...      111.092 sec (=   1.852 min)
Startup calculation              ...       21.624 sec (=   0.360 min)  19.5 %
SCF iterations                   ...       54.884 sec (=   0.915 min)  49.4 %
Property calculations            ...       15.802 sec (=   0.263 min)  14.2 %
MP2 module                       ...       18.782 sec (=   0.313 min)  16.9 %
                             ****ORCA TERMINATED NORMALLY****
TOTAL RUN TIME: 0 days 0 hours 2 minutes 31 seconds 769 msec
