
                                 *****************
                                 * O   R   C   A *
                                 *****************

                                            #,                                       
                                            ###                                      
                                            ####                                     
                                            #####                                    
                                            ######                                   
                                           ########,                                 
                                     ,,################,,,,,                         
                               ,,#################################,,                 
                          ,,##########################################,,             
                       ,#########################################, ''#####,          
                    ,#############################################,,   '####,        
                  ,##################################################,,,,####,       
                ,###########''''           ''''###############################       
              ,#####''   ,,,,##########,,,,          '''####'''          '####       
            ,##' ,,,,###########################,,,                        '##       
           ' ,,###''''                  '''############,,,                           
         ,,##''                                '''############,,,,        ,,,,,,###''
      ,#''                                            '''#######################'''  
     '                                                          ''''####''''         
             ,#######,   #######,   ,#######,      ##                                
            ,#'     '#,  ##    ##  ,#'     '#,    #''#        ,####,   ,####,        
            ##       ##  ##   ,#'  ##            #'  '#       #'       #'  '#        
            ##       ##  #######   ##           ,######,      #####,   #    #        
            '#,     ,#'  ##    ##  '#,     ,#' ,#      #,     #,   #   #,  ,#        
             '#######'   ##     ##  '#######'  #'      '#     '####' # '####'        



                #########################################################
                #                        -***-                          #
                #          Department of theory and spectroscopy        #
                #                                                       #
                #                      Frank Neese                      #
                #                                                       #
                #     Directorship, Architecture, Infrastructure        #
                #                    SHARK, DRIVERS                     #
                #        Core code/Algorithms in most modules           #
                #                                                       #
                #        Max Planck Institute fuer Kohlenforschung      #
                #                Kaiser Wilhelm Platz 1                 #
                #                 D-45470 Muelheim/Ruhr                 #
                #                      Germany                          #
                #                                                       #
                #                  All rights reserved                  #
                #                        -***-                          #
                #########################################################


                         Program Version 6.0.1  -  RELEASE   -


 With contributions from (in alphabetic order):
[Max-Planck-Institut fuer Kohlenforschung]                               
  Daniel Aravena         : Magnetic Suceptibility                        
  Michael Atanasov       : Ab Initio Ligand Field Theory (pilot matlab implementation)
  Alexander A. Auer      : GIAO ZORA, VPT2 properties, NMR spectrum      
  Ute Becker             : All parallelization in ORCA, NUMFREQ, NUMCALC 
  Giovanni Bistoni       : ED, misc. LED, open-shell LED, HFLD           
  Martin Brehm           : Molecular dynamics                            
  Dmytro Bykov           : pre 5.0 version of the SCF Hessian            
  Marcos Casanova-Páez   : Triplet and SCS-CIS(D). UHF-(DLPNO)-IP/EA/STEOM-CCSD. UHF-CVS-IP/STEOM-CCSD   
  Vijay G. Chilkuri      : MRCI spin determinant printing, contributions to CSF-ICE 
  Pauline Colinet        : FMM embedding                                 
  Dipayan Datta          : RHF DLPNO-CCSD density                        
  Achintya Kumar Dutta   : EOM-CC, STEOM-CC                              
  Nicolas Foglia         : Exact transition moments, OPA infrastructure, MCD improvements    
  Dmitry Ganyushin       : Spin-Orbit,Spin-Spin,Magnetic field MRCI      
  Miquel Garcia-Rates    : C-PCM and meta-GGA Hessian, CCSD/C-PCM, Gaussian charge scheme 
  Tiago L. C. Gouveia    : GS-ROHF, GS-ROCIS                             
  Yang Guo               : DLPNO-NEVPT2, F12-NEVPT2, CIM, IAO-localization        
  Andreas Hansen         : Spin unrestricted coupled pair/coupled cluster methods 
  Ingolf Harden          : AUTO-CI MPn and infrastructure                
  Benjamin Helmich-Paris : MC-RPA, TRAH-(SCF,CASSCF), AVAS, COSX integrals, SCF dyn. polar. 
  Lee Huntington         : MR-EOM, pCC                                   
  Robert Izsak           : Overlap fitted RIJCOSX, COSX-SCS-MP3, EOM     
  Riya Kayal             : Wick's Theorem for AUTO-CI, AUTO-CI UHF-CCSDT 
  Emily Kempfer          : AUTO-CI, RHF CISDT and CCSDT                  
  Christian Kollmar      : KDIIS, OOCD, Brueckner-CCSD(T), CCSD density, CASPT2, CASPT2-K, improved NEVPT2 
  Axel Koslowski         : Symmetry handling                             
  Simone Kossmann        : meta-GGA functionals, TD-DFT gradient, OOMP2, (MP2 Hessian; deprecated post 5.0) 
  Lucas Lang             : DCDCAS                                        
  Marvin Lechner         : AUTO-CI (C++ implementation), FIC-MRCC        
  Spencer Leger          : CASSCF response                               
  Dagmar Lenk            : GEPOL surface, SMD, ORCA-2-JSON               
  Dimitrios Liakos       : Extrapolation schemes; Compound Job, initial MDCI parallelization 
  Dimitrios Manganas     : Further ROCIS development; embedding schemes. LFT, Crystal Embedding 
  Dimitrios Pantazis     : SARC Basis sets                               
  Anastasios Papadopoulos: AUTO-CI, single reference methods and gradients 
  Taras Petrenko         : pre 6.0 DFT Hessian and TD-DFT gradient, (ASA, deprecated), ECA, 1-Electron XAS/XES, NRVS 
  Peter Pinski           : DLPNO-MP2, DLPNO-MP2 Gradient                 
  Christoph Reimann      : Effective Core Potentials                     
  Marius Retegan         : Local ZFS, SOC                                
  Christoph Riplinger    : Optimizer, TS searches, QM/MM, DLPNO-CCSD(T), (RO)-DLPNO pert. Triples 
  Michael Roemelt        : Original ROCIS implementation                 
  Masaaki Saitow         : Open-shell DLPNO-CCSD energy and density      
  Barbara Sandhoefer     : DKH picture change effects                    
  Kantharuban Sivalingam : CASSCF convergence/infrastructure, NEVPT2 and variants, FIC-MRCI 
  Bernardo de Souza      : ESD, SOC TD-DFT                               
  Georgi L. Stoychev     : AutoAux, RI-MP2 NMR, DLPNO-MP2 response, X2C  
  Van Anh Tran           : RI-MP2 g-tensors                              
  Willem Van den Heuvel  : Paramagnetic NMR                              
  Zikuan Wang            : NOTCH, Electric field optimization            
  Frank Wennmohs         : Technical directorship and infrastructure     
  Hang Xu                : AUTO-CI-Response properties                   
                                                                         
[FACCTs GmbH]                                                            
  Markus Bursch, Miquel Garcia-Rates, Christoph Riplinger, Bernardo de Souza, Georgi L. Stoychev 
                                                                 
  APM, Basis sets (HGBS, AHGBS, def-TZVP (Ac-Lr), def2-XVPD (La-Lu)), CI-OPT, improved COSX, DLPNO-Multilevel,           
  DOCKER, DRACO, updates on ESD, GOAT, IRC, LR-CPCM, MBIS, meta-GGA TD-DFT gradient, ML-optimized integration grids, 
  MM, NACMEs, nearIR, NEB, NEB-TS, NL-DFT gradient (VV10), 2- and 3-layer-ONIOM, interface openCOSMO-RS, QMMM,   
  Crystal-QMMM, SF, symmetry and pop. for TD-DFT, r2SCAN hybrids, SOLVATOR                                   
                                                                         
[Other institutions]                                                     
  V. Asgeirsson          : NEB                                           
  Christoph Bannwarth    : sTDA-DFT, sTD-DFT, PBEh-3c, B97-3c, D3        
  Sebastian Ehlert       : rSCAN, r2SCAN, r2SCAN-3c, D4, dhf basis sets  
  Marvin Friede          : D4 for Fr, Ra, Ac-Lr                          
  Lars Goerigk           : TD-DFT with DH, B97 family of functionals     
  Stefan Grimme          : VdW corrections, initial TS optimization, DFT functionals, gCP, sTDA/sTD-DF 
  Waldemar Hujo          : DFT-NL                                        
  H. Jonsson             : NEB                                           
  Holger Kruse           : gCP                                           
  Marcel Mueller         : wB97X-3c, vDZP basis set                      
  Hagen Neugebauer       : wr2SCAN                                       
  Tobias Risthaus        : range-separated hybrid DFT                    
  Lukas Wittmann         : regularized MP2, r2SCAN double-hybrids, wr2SCAN        
                                                                         
We gratefully acknowledge several colleagues who have allowed us to      
interface, adapt or use parts of their codes:                            
  Ed Valeev, F. Pavosevic, A. Kumar             : LibInt (2-el integral package), F12 methods 
  Garnet Chan, S. Sharma, J. Yang, R. Olivares  : DMRG                   
  Ulf Ekstrom                                   : XCFun DFT Library      
  Mihaly Kallay                                 : mrcc  (arbitrary order and MRCC methods)
  Frank Weinhold                                : gennbo (NPA and NBO analysis)           
  Simon Mueller                                 : openCOSMO-RS                            
  Christopher J. Cramer and Donald G. Truhlar   : smd solvation model                     
  S Lehtola, MJT Oliveira, MAL Marques          : LibXC Library                           
  Liviu Ungur et al                             : ANISO software                          


 Your calculation uses the libint2 library for the computation of 2-el integrals
 For citations please refer to: http://libint.valeyev.net

 Your ORCA version has been built with support for libXC version: 6.2.2
 For citations please refer to: https://libxc.gitlab.io

 This ORCA versions uses:
   CBLAS   interface :  Fast vector & matrix operations
   LAPACKE interface :  Fast linear algebra routines
   SCALAPACK package :  Parallel linear algebra routines
   Shared memory     :  Shared parallel matrices
   BLAS/LAPACK       :  OpenBLAS 0.3.27  USE64BITINT DYNAMIC_ARCH NO_AFFINITY SapphireRapids SINGLE_THREADED
        Core in use  :  SapphireRapids
   Copyright (c) 2011-2014, The OpenBLAS Project


Warning! Weird basis set assignment to AuxJK basis!


***************************************
The coordinates will be read from file: /scratch/kx58/rs2200/dhdft/inputs/compas3D-xyzs/hc_c24h14_0pent_2.xyz
***************************************


Your calculation utilizes the atom-pairwise dispersion correction
based on EEQ partial charges (D4)


================================================================================

----- Orbital basis set information -----
Your calculation utilizes the basis: def2-TZVP
   F. Weigend and R. Ahlrichs, Phys. Chem. Chem. Phys. 7, 3297 (2005).

----- AuxC basis set information -----
Your calculation utilizes the auxiliary basis: def2-TZVP/C
  H-La, Hf-Rn : A. Hellweg, C. Hattig, S. Hofener and W. Klopper, Theor. Chem. Acc. 117, 587 (2007).
        Ce-Lu : J. Chmela and M. E. Harding, Mol. Phys. (2018).

----- AuxJK basis set information -----
Your calculation utilizes the auxiliary basis: def2-TZVP/C
  H-La, Hf-Rn : A. Hellweg, C. Hattig, S. Hofener and W. Klopper, Theor. Chem. Acc. 117, 587 (2007).
        Ce-Lu : J. Chmela and M. E. Harding, Mol. Phys. (2018).

================================================================================
                                        WARNINGS
                       Please study these warnings very carefully!
================================================================================


WARNING: No MP2 level density has been requested!
         To calculate MP2 level properties use
         %mp2 Density relaxed end
         or
         %mp2 Density unrelaxed end
         Otherwise for double-hybrid DFT only the energy is correct!

================================================================================
                                       INPUT FILE
================================================================================
NAME = compas3D_hc_c24h14_0pent_2_tz_riri.inp
|  1> ! RKS revDSD-PBEP86-D4/2021 defgrid3  RIJK NOPOP NoFrozencore NoUseSym
|  2> 
|  3> %basis
|  4> Basis "def2-TZVP"
|  5> AuxJK "def2-TZVP/C"
|  6> AuxC "def2-TZVP/C"
|  7> end
|  8> 
|  9> %method
| 10> ScalHFX 0.69
| 11> ScalDFX 0.31
| 12> ScalDFC 0.4038
| 13> ScalLDAC 0.4038
| 14> 
| 15> D4S6 0.4612
| 16> D4S8 0.0
| 17> D4A1 0.44
| 18> D4A2 3.60
| 19> end
| 20> 
| 21> %mp2
| 22> PS 0.5979
| 23> PT 0.0571
| 24> end
| 25> 
| 26> %pal
| 27> nprocs 104
| 28> end
| 29> 
| 30> *XYZFILE 0 1 /scratch/kx58/rs2200/dhdft/inputs/compas3D-xyzs/hc_c24h14_0pent_2.xyz
| 31> 
| 32>                          ****END OF INPUT****
================================================================================

                       ****************************
                       * Single Point Calculation *
                       ****************************

---------------------------------
CARTESIAN COORDINATES (ANGSTROEM)
---------------------------------
  C      2.268688   -0.113118   -0.244302
  C      1.354066   -1.181930   -0.400392
  C     -0.063135   -0.962435   -0.240365
  C     -0.562223    0.310633    0.083677
  C      0.343310    1.456159   -0.046959
  C      1.741948    1.246843   -0.132388
  C      3.641587   -0.390187   -0.282391
  C      4.111606   -1.676184   -0.510440
  C      3.218749   -2.719608   -0.714142
  C      1.842216   -2.492461   -0.658431
  C      0.904740   -3.574757   -0.846025
  C     -0.422232   -3.375976   -0.722426
  C     -0.955626   -2.079947   -0.375245
  C     -2.305288   -1.902410   -0.162229
  C     -2.812298   -0.682071    0.323235
  C     -1.929676    0.424687    0.516220
  C     -0.134509    2.777195   -0.199561
  C      0.719670    3.856114   -0.300131
  C      2.102696    3.652171   -0.266469
  C      2.595351    2.365239   -0.206896
  C     -4.184842   -0.564792    0.681259
  C     -4.664236    0.563757    1.286286
  C     -3.772084    1.617472    1.593092
  C     -2.454484    1.548516    1.220602
  H      4.364524    0.410822   -0.137004
  H      5.186953   -1.862557   -0.536524
  H      3.583464   -3.730527   -0.908516
  H      1.301987   -4.564615   -1.080744
  H     -1.126208   -4.200263   -0.855561
  H     -2.989570   -2.741831   -0.305798
  H     -1.203686    2.950687   -0.285466
  H      0.312054    4.861232   -0.424586
  H      2.789212    4.498392   -0.332667
  H      3.672969    2.217447   -0.255182
  H     -4.843723   -1.414017    0.486721
  H     -5.716562    0.637891    1.567290
  H     -4.130039    2.485843    2.149788
  H     -1.785372    2.350585    1.520670

----------------------------
CARTESIAN COORDINATES (A.U.)
----------------------------
  NO LB      ZA    FRAG     MASS         X           Y           Z
   0 C     6.0000    0    12.011    4.287199   -0.213763   -0.461664
   1 C     6.0000    0    12.011    2.558815   -2.233523   -0.756632
   2 C     6.0000    0    12.011   -0.119308   -1.818739   -0.454224
   3 C     6.0000    0    12.011   -1.062448    0.587011    0.158126
   4 C     6.0000    0    12.011    0.648761    2.751742   -0.088740
   5 C     6.0000    0    12.011    3.291804    2.356192   -0.250176
   6 C     6.0000    0    12.011    6.881602   -0.737346   -0.533642
   7 C     6.0000    0    12.011    7.769810   -3.167528   -0.964591
   8 C     6.0000    0    12.011    6.082554   -5.139315   -1.349533
   9 C     6.0000    0    12.011    3.481284   -4.710069   -1.244253
  10 C     6.0000    0    12.011    1.709711   -6.755312   -1.598755
  11 C     6.0000    0    12.011   -0.797902   -6.379669   -1.365188
  12 C     6.0000    0    12.011   -1.805871   -3.930530   -0.709110
  13 C     6.0000    0    12.011   -4.356364   -3.595034   -0.306568
  14 C     6.0000    0    12.011   -5.314474   -1.288928    0.610826
  15 C     6.0000    0    12.011   -3.646559    0.802542    0.975514
  16 C     6.0000    0    12.011   -0.254184    5.248138   -0.377115
  17 C     6.0000    0    12.011    1.359980    7.287000   -0.567165
  18 C     6.0000    0    12.011    3.973520    6.901603   -0.503554
  19 C     6.0000    0    12.011    4.904503    4.469654   -0.390977
  20 C     6.0000    0    12.011   -7.908205   -1.067302    1.287393
  21 C     6.0000    0    12.011   -8.814129    1.065346    2.430728
  22 C     6.0000    0    12.011   -7.128205    3.056580    3.010509
  23 C     6.0000    0    12.011   -4.638302    2.926272    2.306603
  24 H     1.0000    0     1.008    8.247755    0.776342   -0.258900
  25 H     1.0000    0     1.008    9.801921   -3.519722   -1.013883
  26 H     1.0000    0     1.008    6.771766   -7.049675   -1.716846
  27 H     1.0000    0     1.008    2.460400   -8.625873   -2.042310
  28 H     1.0000    0     1.008   -2.128224   -7.937347   -1.616776
  29 H     1.0000    0     1.008   -5.649468   -5.181310   -0.577874
  30 H     1.0000    0     1.008   -2.274637    5.575991   -0.539453
  31 H     1.0000    0     1.008    0.589696    9.186396   -0.802352
  32 H     1.0000    0     1.008    5.270846    8.500729   -0.628650
  33 H     1.0000    0     1.008    6.940906    4.190367   -0.482224
  34 H     1.0000    0     1.008   -9.153309   -2.672105    0.919769
  35 H     1.0000    0     1.008  -10.802736    1.205440    2.961749
  36 H     1.0000    0     1.008   -7.804643    4.697562    4.062511
  37 H     1.0000    0     1.008   -3.373865    4.441962    2.873649

--------------------------------
INTERNAL COORDINATES (ANGSTROEM)
--------------------------------
 C      0   0   0     0.000000000000     0.00000000     0.00000000
 C      1   0   0     1.415363646090     0.00000000     0.00000000
 C      2   1   0     1.442999113618   120.50149506     0.00000000
 C      3   2   1     1.405274182674   120.80887917   359.46931910
 C      4   3   2     1.466044479336   117.90109272    13.73788056
 C      5   4   3     1.416791783242   119.97948016   343.02837244
 C      1   2   3     1.401096015811   118.74255397   174.04482490
 C      7   1   2     1.388060449177   121.29724982     2.03495754
 C      8   7   1     1.388316876866   120.17528097     0.35723615
 C      9   8   7     1.396260010384   120.39199288   358.39082894
 C     10   9   8     1.444097410440   120.85707968   181.06999730
 C     11  10   9     1.347458814517   121.11976708   176.40277053
 C      3   2   1     1.436511090886   118.77944083   181.48226964
 C     13   3   2     1.377854860959   119.59232793   176.88225845
 C     14  13   3     1.407821479633   121.18287625   353.17293983
 C     15  14  13     1.428698120341   119.70873419     4.22674802
 C      5   4   3     1.413057747188   122.08980064   157.85901605
 C     17   5   4     1.379783834898   121.97590823   178.90724582
 C     18  17   5     1.398387445926   119.76682098     0.71381517
 C     19  18  17     1.379293688633   119.36496303     3.54587254
 C     15  14  13     1.423309590027   120.36182882   187.18139063
 C     21  15  14     1.367296002150   121.15988048   172.95392160
 C     22  21  15     1.414348542978   119.32441512   358.29838506
 C     23  22  21     1.370975502977   120.65173731     3.80743801
 H      7   1   2     1.088756726470   120.10072102   181.70706248
 H      8   7   1     1.091689680154   119.71189282   179.89404898
 H      9   8   7     1.092133681110   120.46622710   179.09979764
 H     11  10   9     1.092115899711   118.10405636   357.06651768
 H     12  11  10     1.092134152336   120.81461083   180.61488072
 H     14  13   3     1.092465526400   119.61871758   177.42639342
 H     17   5   4     1.086563383615   119.37642844   356.11507553
 H     18  17   5     1.091742049750   119.80675476   179.54936943
 H     19  18  17     1.091684704289   120.49355279   180.75899663
 H     20  19  18     1.088776626698   118.57149080   175.56086575
 H     21  15  14     1.092315309689   118.21758780   354.72705502
 H     22  21  15     1.091718332081   120.52471394   180.73585326
 H     23  22  21     1.091837621111   119.75793886   185.06182733
 H     24  23  22     1.086768379380   118.65795132   183.34283952

---------------------------
INTERNAL COORDINATES (A.U.)
---------------------------
 C      0   0   0     0.000000000000     0.00000000     0.00000000
 C      1   0   0     2.674649671018     0.00000000     0.00000000
 C      2   1   0     2.726873136229   120.50149506     0.00000000
 C      3   2   1     2.655583348324   120.80887917   359.46931910
 C      4   3   2     2.770422566092   117.90109272    13.73788056
 C      5   4   3     2.677348459117   119.97948016   343.02837244
 C      1   2   3     2.647687757211   118.74255397   174.04482490
 C      7   1   2     2.623054106272   121.29724982     2.03495754
 C      8   7   1     2.623538684377   120.17528097     0.35723615
 C      9   8   7     2.638549031371   120.39199288   358.39082894
 C     10   9   8     2.728948616437   120.85707968   181.06999730
 C     11  10   9     2.546328136175   121.11976708   176.40277053
 C      3   2   1     2.714612550115   118.77944083   181.48226964
 C     13   3   2     2.603768339504   119.59232793   176.88225845
 C     14  13   3     2.660397041957   121.18287625   353.17293983
 C     15  14  13     2.699848175493   119.70873419     4.22674802
 C      5   4   3     2.670292153600   122.08980064   157.85901605
 C     17   5   4     2.607413571969   121.97590823   178.90724582
 C     18  17   5     2.642569301913   119.76682098     0.71381517
 C     19  18  17     2.606487329762   119.36496303     3.54587254
 C     15  14  13     2.689665328934   120.36182882   187.18139063
 C     21  15  14     2.583814988070   121.15988048   172.95392160
 C     22  21  15     2.672731404138   119.32441512   358.29838506
 C     23  22  21     2.590768236942   120.65173731     3.80743801
 H      7   1   2     2.057452039493   120.10072102   181.70706248
 H      8   7   1     2.062994518720   119.71189282   179.89404898
 H      9   8   7     2.063833558930   120.46622710   179.09979764
 H     11  10   9     2.063799956955   118.10405636   357.06651768
 H     12  11  10     2.063834449418   120.81461083   180.61488072
 H     14  13   3     2.064460655645   119.61871758   177.42639342
 H     17   5   4     2.053307222178   119.37642844   356.11507553
 H     18  17   5     2.063093482913   119.80675476   179.54936943
 H     19  18  17     2.062985115697   120.49355279   180.75899663
 H     20  19  18     2.057489645474   118.57149080   175.56086575
 H     21  15  14     2.064176787202   118.21758780   354.72705502
 H     22  21  15     2.063048663014   120.52471394   180.73585326
 H     23  22  21     2.063274086612   119.75793886   185.06182733
 H     24  23  22     2.053694608034   118.65795132   183.34283952

---------------------
BASIS SET INFORMATION
---------------------
There are 2 groups of distinct atoms

 Group   1 Type C   : 11s6p2d1f contracted to 5s3p2d1f pattern {62111/411/11/1}
 Group   2 Type H   : 5s1p contracted to 3s1p pattern {311/1}

Atom   0C    basis set group =>   1
Atom   1C    basis set group =>   1
Atom   2C    basis set group =>   1
Atom   3C    basis set group =>   1
Atom   4C    basis set group =>   1
Atom   5C    basis set group =>   1
Atom   6C    basis set group =>   1
Atom   7C    basis set group =>   1
Atom   8C    basis set group =>   1
Atom   9C    basis set group =>   1
Atom  10C    basis set group =>   1
Atom  11C    basis set group =>   1
Atom  12C    basis set group =>   1
Atom  13C    basis set group =>   1
Atom  14C    basis set group =>   1
Atom  15C    basis set group =>   1
Atom  16C    basis set group =>   1
Atom  17C    basis set group =>   1
Atom  18C    basis set group =>   1
Atom  19C    basis set group =>   1
Atom  20C    basis set group =>   1
Atom  21C    basis set group =>   1
Atom  22C    basis set group =>   1
Atom  23C    basis set group =>   1
Atom  24H    basis set group =>   2
Atom  25H    basis set group =>   2
Atom  26H    basis set group =>   2
Atom  27H    basis set group =>   2
Atom  28H    basis set group =>   2
Atom  29H    basis set group =>   2
Atom  30H    basis set group =>   2
Atom  31H    basis set group =>   2
Atom  32H    basis set group =>   2
Atom  33H    basis set group =>   2
Atom  34H    basis set group =>   2
Atom  35H    basis set group =>   2
Atom  36H    basis set group =>   2
Atom  37H    basis set group =>   2
---------------------------------
AUXILIARY/C BASIS SET INFORMATION
---------------------------------
There are 2 groups of distinct atoms

 Group   1 Type C   : 8s6p5d3f1g contracted to 8s6p4d3f1g pattern {11111111/111111/2111/111/1}
 Group   2 Type H   : 4s3p2d contracted to 4s2p1d pattern {1111/21/2}

Atom   0C    basis set group =>   1
Atom   1C    basis set group =>   1
Atom   2C    basis set group =>   1
Atom   3C    basis set group =>   1
Atom   4C    basis set group =>   1
Atom   5C    basis set group =>   1
Atom   6C    basis set group =>   1
Atom   7C    basis set group =>   1
Atom   8C    basis set group =>   1
Atom   9C    basis set group =>   1
Atom  10C    basis set group =>   1
Atom  11C    basis set group =>   1
Atom  12C    basis set group =>   1
Atom  13C    basis set group =>   1
Atom  14C    basis set group =>   1
Atom  15C    basis set group =>   1
Atom  16C    basis set group =>   1
Atom  17C    basis set group =>   1
Atom  18C    basis set group =>   1
Atom  19C    basis set group =>   1
Atom  20C    basis set group =>   1
Atom  21C    basis set group =>   1
Atom  22C    basis set group =>   1
Atom  23C    basis set group =>   1
Atom  24H    basis set group =>   2
Atom  25H    basis set group =>   2
Atom  26H    basis set group =>   2
Atom  27H    basis set group =>   2
Atom  28H    basis set group =>   2
Atom  29H    basis set group =>   2
Atom  30H    basis set group =>   2
Atom  31H    basis set group =>   2
Atom  32H    basis set group =>   2
Atom  33H    basis set group =>   2
Atom  34H    basis set group =>   2
Atom  35H    basis set group =>   2
Atom  36H    basis set group =>   2
Atom  37H    basis set group =>   2
----------------------------------
AUXILIARY/JK BASIS SET INFORMATION
----------------------------------
There are 2 groups of distinct atoms

 Group   1 Type C   : 8s6p5d3f1g contracted to 8s6p4d3f1g pattern {11111111/111111/2111/111/1}
 Group   2 Type H   : 4s3p2d contracted to 4s2p1d pattern {1111/21/2}

Atom   0C    basis set group =>   1
Atom   1C    basis set group =>   1
Atom   2C    basis set group =>   1
Atom   3C    basis set group =>   1
Atom   4C    basis set group =>   1
Atom   5C    basis set group =>   1
Atom   6C    basis set group =>   1
Atom   7C    basis set group =>   1
Atom   8C    basis set group =>   1
Atom   9C    basis set group =>   1
Atom  10C    basis set group =>   1
Atom  11C    basis set group =>   1
Atom  12C    basis set group =>   1
Atom  13C    basis set group =>   1
Atom  14C    basis set group =>   1
Atom  15C    basis set group =>   1
Atom  16C    basis set group =>   1
Atom  17C    basis set group =>   1
Atom  18C    basis set group =>   1
Atom  19C    basis set group =>   1
Atom  20C    basis set group =>   1
Atom  21C    basis set group =>   1
Atom  22C    basis set group =>   1
Atom  23C    basis set group =>   1
Atom  24H    basis set group =>   2
Atom  25H    basis set group =>   2
Atom  26H    basis set group =>   2
Atom  27H    basis set group =>   2
Atom  28H    basis set group =>   2
Atom  29H    basis set group =>   2
Atom  30H    basis set group =>   2
Atom  31H    basis set group =>   2
Atom  32H    basis set group =>   2
Atom  33H    basis set group =>   2
Atom  34H    basis set group =>   2
Atom  35H    basis set group =>   2
Atom  36H    basis set group =>   2
Atom  37H    basis set group =>   2


           ************************************************************
           *        Program running with 104 parallel MPI-processes   *
           *              working on a common directory               *
           ************************************************************
------------------------------------------------------------------------------
                             ORCA STARTUP CALCULATIONS
                           -- RI-GTO INTEGRALS CHOSEN --
------------------------------------------------------------------------------
------------------------------------------------------------------------------
                   ___                                                        
                  /   \      - P O W E R E D   B Y -                         
                 /     \                                                     
                 |  |  |   _    _      __       _____    __    __             
                 |  |  |  | |  | |    /  \     |  _  \  |  |  /  |          
                  \  \/   | |  | |   /    \    | | | |  |  | /  /          
                 / \  \   | |__| |  /  /\  \   | |_| |  |  |/  /          
                |  |  |   |  __  | /  /__\  \  |    /   |      \           
                |  |  |   | |  | | |   __   |  |    \   |  |\   \          
                \     /   | |  | | |  |  |  |  | |\  \  |  | \   \       
                 \___/    |_|  |_| |__|  |__|  |_| \__\ |__|  \__/        
                                                                              
                      - O R C A' S   B I G   F R I E N D -                    
                                      &                                       
                       - I N T E G R A L  F E E D E R -                       
                                                                              
 v1 FN, 2020, v2 2021, v3 2022-2024                                           
------------------------------------------------------------------------------


----------------------
SHARK INTEGRAL PACKAGE
----------------------

Number of atoms                             ...     38
Number of basis functions                   ...    828
Number of shells                            ...    320
Maximum angular momentum                    ...      3
Integral batch strategy                     ... SHARK/LIBINT Hybrid
RI-J (if used) integral strategy            ... SPLIT-RIJ (Revised 2003 algorithm where possible)
Printlevel                                  ...      1
Contraction scheme used                     ... SEGMENTED contraction
Prescreening option                         ... SCHWARTZ
   Thresh                                   ... 1.000e-10
   Tcut                                     ... 1.000e-11
   Tpresel                                  ... 1.000e-11 
Coulomb Range Separation                    ... NOT USED
Exchange Range Separation                   ... NOT USED
Multipole approximations                    ... NOT USED
Finite Nucleus Model                        ... NOT USED
CABS basis                                  ... NOT available
Auxiliary Coulomb fitting basis             ... NOT available
Auxiliary J/K fitting basis                 ... AVAILABLE
   # of basis functions in Aux-JK           ...   2034
   # of shells in Aux-JK                    ...    626
   Maximum angular momentum in Aux-JK       ...      4
Auxiliary Correlation fitting basis         ... AVAILABLE
   # of basis functions in Aux-C            ...   2034
   # of shells in Aux-C                     ...    626
   Maximum angular momentum in Aux-C        ...      4
Auxiliary 'external' fitting basis          ... NOT available

Checking pre-screening integrals            ... done (  0.0 sec) Dimension = 320
Check shell pair data                       ... done (  0.0 sec)
Shell pair information
Shell pair cut-off parameter TPreSel        ...   1.0e-11
Total number of shell pairs                 ...     51360
Shell pairs after pre-screening             ...     37193
Total number of primitive shell pairs       ...    159900
Primitive shell pairs kept                  ...     77051
          la=0 lb=0:   8989 shell pairs
          la=1 lb=0:  10540 shell pairs
          la=1 lb=1:   3036 shell pairs
          la=2 lb=0:   5488 shell pairs
          la=2 lb=1:   3190 shell pairs
          la=2 lb=2:    877 shell pairs
          la=3 lb=0:   2547 shell pairs
          la=3 lb=1:   1522 shell pairs
          la=3 lb=2:    804 shell pairs
          la=3 lb=3:    200 shell pairs

Calculating one electron integrals          ... done (  0.1 sec)
Calculating RI/JK V-Matrix + Cholesky decomp... done (  0.4 sec)
Calculating RI/C V-Matrix + Cholesky decomp.... done (  0.4 sec)
Calculating Nuclear repulsion               ... done (  0.0 sec) ENN=   1822.990476014147 Eh

Diagonalization of the overlap matrix:
Smallest eigenvalue                        ... 2.410e-06
Time for diagonalization                   ...    0.119 sec
Threshold for overlap eigenvalues          ... 1.000e-07
Number of eigenvalues below threshold      ... 0
Time for construction of square roots      ...    0.129 sec
Total time needed                          ...    0.281 sec

-------------------
DFT GRID GENERATION
-------------------

General Integration Accuracy     IntAcc      ... 4.959
Radial Grid Type                 RadialGrid  ... OptM3 with GC (2021)
Angular Grid (max. ang.)         AngularGrid ... 6 (Lebedev-590)
Angular grid pruning method      GridPruning ... 4 (adaptive)
Weight generation scheme         WeightScheme... mBecke (2022)
Basis function cutoff            BFCut       ... 1.0000e-10
Integration weight cutoff        WCut        ... 1.0000e-14
Partially contracted basis set               ... off
Rotationally invariant grid construction     ... off
Angular grids for H and He will be reduced by one unit

Total number of grid points                  ...   457610
Total number of batches                      ...     7167
Average number of points per batch           ...       63
Average number of grid points per atom       ...    12042
Initializing property integral containers    ... done (  0.0 sec)

SHARK setup successfully completed in   8.5 seconds

Maximum memory used throughout the entire STARTUP-calculation: 119.8 MB


           ************************************************************
           *        Program running with 104 parallel MPI-processes   *
           *              working on a common directory               *
           ************************************************************
-------------------------------------------------------------------------------
                                 ORCA GUESS
                   Start orbitals & Density for SCF / CASSCF
-------------------------------------------------------------------------------

------------
SCF SETTINGS
------------
Hamiltonian:
 Density Functional     Method          .... DFT(GTOs)
 Exchange Functional    Exchange        .... PBE
   PBE kappa parameter   XKappa         ....  0.804000
   PBE mue parameter    XMuePBE         ....  0.219520
 Correlation Functional Correlation     .... P86
 LDA part of GGA corr.  LDAOpt          .... VWN-5
 Gradients option       PostSCFGGA      .... off
 Hybrid DFT is turned on
   Fraction HF Exchange ScalHFX         ....  0.690000
   Scaling of DF-GGA-X  ScalDFX         ....  0.310000
   Scaling of DF-GGA-C  ScalDFC         ....  0.403800
   Scaling of DF-LDA-C  ScalLDAC        ....  0.403800
   Perturbative correction              ....  1.000000
 RI-approximation to the Coulomb term is turned on
   Number of AuxJK basis functions      .... 2034
   RI-JK (J+K treated both via RI)      .... on


General Settings:
 Integral files         IntName         .... compas3D_hc_c24h14_0pent_2_tz_riri
 Hartree-Fock type      HFTyp           .... RHF
 Total Charge           Charge          ....    0
 Multiplicity           Mult            ....    1
 Number of Electrons    NEL             ....  158
 Basis Dimension        Dim             ....  828
 Nuclear Repulsion      ENuc            ....   1822.9904760141 Eh

Convergence Acceleration:
 AO-DIIS                CNVDIIS         .... on
   Start iteration      DIISMaxIt       ....    12
   Startup error        DIISStart       ....  0.200000
   # of expansion vecs  DIISMaxEq       ....     5
   Bias factor          DIISBfac        ....   1.050
   Max. coefficient     DIISMaxC        ....  10.000
 MO-DIIS                CNVKDIIS        .... off
 Trust-Rad. Augm. Hess. CNVTRAH         .... auto
   Auto Start mean grad. ratio tolernc. ....  1.125000
   Auto Start start iteration           ....    50
   Auto Start num. interpolation iter.  ....    10
   Max. Number of Micro iterations      ....    24
   Max. Number of Macro iterations      .... Maxiter - #DIIS iter
   Number of Davidson start vectors     ....     2
   Converg. threshold    (grad. norm)   ....   5.000e-05
   Grad. Scal. Fac. for Micro threshold ....   0.100
   Minimum threshold for Micro iter.    ....   1.000e-02
   NR start threshold (gradient norm)   ....   1.000e-04
   Initial trust radius                 ....   0.400
   Minimum AH scaling param. (alpha)    ....   1.000
   Maximum AH scaling param. (alpha)    .... 1000.000
   Quad. conv. algorithm                .... NR
   White noise on init. David. guess    .... on
   Maximum white noise                  ....   0.010
   Pseudo random numbers                .... off
   Inactive MOs                         .... canonical
   Orbital update algorithm             .... Taylor
   Preconditioner                       .... Diag
   Full preconditioner red. dimension   ....   250
 SOSCF                  CNVSOSCF        .... on
   Start iteration      SOSCFMaxIt      ....   150
   Startup grad/error   SOSCFStart      ....  0.003300
   Hessian update       SOSCFHessUp     .... L-BFGS
 Level Shifting         CNVShift        .... on
   Level shift para.    LevelShift      ....    0.2500
   Turn off err/grad.   ShiftErr        ....    0.0010
 Zerner damping         CNVZerner       .... off
 Static damping         CNVDamp         .... on
   Fraction old density DampFac         ....    0.7000
   Max. Damping (<1)    DampMax         ....    0.9800
   Min. Damping (>=0)   DampMin         ....    0.0000
   Turn off err/grad.   DampErr         ....    0.1000

SCF Procedure:
 Maximum # iterations   MaxIter         ....   125
 SCF integral mode      SCFMode         .... Direct
   Integral package                     .... SHARK and LIBINT hybrid scheme
 Reset frequency        DirectResetFreq ....    20
 Integral Threshold     Thresh          ....  1.000e-10 Eh
 Primitive CutOff       TCut            ....  1.000e-11 Eh

Convergence Tolerance:
 Convergence Check Mode ConvCheckMode   .... Total+1el-Energy
 Convergence forced     ConvForced      .... 0
 Energy Change          TolE            ....  1.000e-06 Eh
 1-El. energy change                    ....  1.000e-03 Eh
 Orbital Gradient       TolG            ....  5.000e-05
 Orbital Rotation angle TolX            ....  5.000e-05
 DIIS Error             TolErr          ....  1.000e-06

------------------------------
INITIAL GUESS: MODEL POTENTIAL
------------------------------
Loading Hartree-Fock densities                     ... done
Calculating cut-offs                               ... done
Initializing the effective Hamiltonian             ... done
Setting up the integral package (SHARK)            ... done
Starting the Coulomb interaction                   ... done (   0.1 sec)
Making the grid                                    ... done (   0.3 sec)
Mapping shells                                     ... done
Starting the XC term evaluation                    ... done (   0.1 sec)
  promolecular density results
     # of electrons  =    158.002997781
     EX              =   -126.956990460
     EC              =      0.206259373
     EX+EC           =   -126.750731088
Transforming the Hamiltonian                       ... done (   0.1 sec)
Diagonalizing the Hamiltonian                      ... done (   0.1 sec)
Back transforming the eigenvectors                 ... done (   0.1 sec)
Now organizing SCF variables                       ... done
                      ------------------
                      INITIAL GUESS DONE (   1.0 sec)
                      ------------------
             **** ENERGY FILE WAS UPDATED (compas3D_hc_c24h14_0pent_2_tz_riri.en.tmp) ****
Finished Guess after  15.2 sec
Maximum memory used throughout the entire GUESS-calculation: 68.4 MB


           ************************************************************
           *        Program running with 104 parallel MPI-processes   *
           *              working on a common directory               *
           ************************************************************

-------------------------------------------------------------------------------------------
                                      ORCA LEAN-SCF
                              memory conserving SCF solver
-------------------------------------------------------------------------------------------

----------------------------------------D-I-I-S--------------------------------------------
Iteration    Energy (Eh)           Delta-E    RMSDP     MaxDP     DIISErr   Damp  Time(sec)
-------------------------------------------------------------------------------------------
    1    -919.0218964655537093     0.00e+00  9.77e-04  5.09e-02  1.43e-01  0.700   3.7
    2    -918.8308365943621538     1.91e-01  1.04e-03  5.52e-02  1.30e-01  0.700   3.9
                               ***Turning on AO-DIIS***
    3    -918.9371782888601956    -1.06e-01  9.35e-04  4.04e-02  7.78e-02  0.700   3.7
    4    -919.1490995633544117    -2.12e-01  1.95e-03  1.24e-01  3.14e-02  0.000   3.6
    5    -919.4918915972280047    -3.43e-01  4.72e-04  1.98e-02  3.26e-02  0.000   3.7
    6    -919.5057432658963990    -1.39e-02  3.28e-04  2.04e-02  1.67e-02  0.000   3.8
    7    -919.5093743029010511    -3.63e-03  1.40e-04  9.60e-03  5.21e-03  0.000   3.6
                              *** Initializing SOSCF ***
---------------------------------------S-O-S-C-F--------------------------------------
Iteration    Energy (Eh)           Delta-E    RMSDP     MaxDP     MaxGrad    Time(sec)
--------------------------------------------------------------------------------------
    8    -919.5098519151292749    -4.78e-04  6.50e-05  5.42e-03  1.46e-03     3.9
    9    -919.5098955997355006    -4.37e-05  3.33e-05  1.46e-03  1.52e-04     3.5
   10    -919.5098997558961855    -4.16e-06  2.49e-05  2.10e-03  9.91e-05     3.4
   11    -919.5099005113324893    -7.55e-07  8.72e-06  3.70e-04  5.35e-05     3.5
                 **** Energy Check signals convergence ****

               *****************************************************
               *                     SUCCESS                       *
               *           SCF CONVERGED AFTER  11 CYCLES          *
               *****************************************************

             **** ENERGY FILE WAS UPDATED (compas3D_hc_c24h14_0pent_2_tz_riri.en.tmp) ****

----------------
TOTAL SCF ENERGY
----------------

Total Energy       :       -919.50990051133249 Eh          -25021.13644 eV

Components:
Nuclear Repulsion  :       1822.99047601414668 Eh           49606.09278 eV
Electronic Energy  :      -2742.50037652547917 Eh          -74627.22922 eV
One Electron Energy:      -4866.60686413768417 Eh         -132427.10524 eV
Two Electron Energy:       2124.10648761220500 Eh           57799.87602 eV

Virial components:
Potential Energy   :      -1836.32658220837675 Eh          -49968.98668 eV
Kinetic Energy     :        916.81668169704415 Eh           24947.85023 eV
Virial Ratio       :          2.00293757614587

DFT components:
N(Alpha)           :       79.000004440395 electrons
N(Beta)            :       79.000004440395 electrons
N(Total)           :      158.000008880789 electrons
E(X)               :      -40.015011370547 Eh       
E(C)               :       -2.352778639429 Eh       
E(XC)              :      -42.367790009976 Eh       

---------------
SCF CONVERGENCE
---------------

  Last Energy change         ...    7.5544e-07  Tolerance :   1.0000e-06
  Last MAX-Density change    ...    3.7020e-04  Tolerance :   1.0000e-05
  Last RMS-Density change    ...    8.7154e-06  Tolerance :   1.0000e-06
  Last DIIS Error            ...    1.4635e-03  Tolerance :   1.0000e-06
  Last Orbital Gradient      ...    5.3454e-05  Tolerance :   5.0000e-05
  Last Orbital Rotation      ...    1.1985e-04  Tolerance :   5.0000e-05


----------------
ORBITAL ENERGIES
----------------

  NO   OCC          E(Eh)            E(eV) 
   0   2.0000     -10.842287      -295.0336 
   1   2.0000     -10.839127      -294.9476 
   2   2.0000     -10.838267      -294.9242 
   3   2.0000     -10.837561      -294.9050 
   4   2.0000     -10.837108      -294.8927 
   5   2.0000     -10.836879      -294.8865 
   6   2.0000     -10.835059      -294.8369 
   7   2.0000     -10.833796      -294.8026 
   8   2.0000     -10.833762      -294.8016 
   9   2.0000     -10.833212      -294.7867 
  10   2.0000     -10.826294      -294.5984 
  11   2.0000     -10.824922      -294.5611 
  12   2.0000     -10.824873      -294.5598 
  13   2.0000     -10.824363      -294.5459 
  14   2.0000     -10.823943      -294.5345 
  15   2.0000     -10.823917      -294.5338 
  16   2.0000     -10.823613      -294.5255 
  17   2.0000     -10.823413      -294.5200 
  18   2.0000     -10.823114      -294.5119 
  19   2.0000     -10.823019      -294.5093 
  20   2.0000     -10.822799      -294.5033 
  21   2.0000     -10.822544      -294.4964 
  22   2.0000     -10.822031      -294.4824 
  23   2.0000     -10.821620      -294.4713 
  24   2.0000      -1.093851       -29.7652 
  25   2.0000      -1.059224       -28.8229 
  26   2.0000      -1.049184       -28.5497 
  27   2.0000      -1.018694       -27.7201 
  28   2.0000      -0.990224       -26.9454 
  29   2.0000      -0.966749       -26.3066 
  30   2.0000      -0.955633       -26.0041 
  31   2.0000      -0.920241       -25.0410 
  32   2.0000      -0.914313       -24.8797 
  33   2.0000      -0.910017       -24.7628 
  34   2.0000      -0.885724       -24.1018 
  35   2.0000      -0.866970       -23.5915 
  36   2.0000      -0.792087       -21.5538 
  37   2.0000      -0.778590       -21.1865 
  38   2.0000      -0.774296       -21.0697 
  39   2.0000      -0.769206       -20.9312 
  40   2.0000      -0.736050       -20.0289 
  41   2.0000      -0.721779       -19.6406 
  42   2.0000      -0.697196       -18.9717 
  43   2.0000      -0.676615       -18.4116 
  44   2.0000      -0.651669       -17.7328 
  45   2.0000      -0.642919       -17.4947 
  46   2.0000      -0.624007       -16.9801 
  47   2.0000      -0.603564       -16.4238 
  48   2.0000      -0.599507       -16.3134 
  49   2.0000      -0.579109       -15.7584 
  50   2.0000      -0.573898       -15.6165 
  51   2.0000      -0.570605       -15.5269 
  52   2.0000      -0.552807       -15.0427 
  53   2.0000      -0.541825       -14.7438 
  54   2.0000      -0.533200       -14.5091 
  55   2.0000      -0.530087       -14.4244 
  56   2.0000      -0.522708       -14.2236 
  57   2.0000      -0.520578       -14.1656 
  58   2.0000      -0.512559       -13.9474 
  59   2.0000      -0.508925       -13.8485 
  60   2.0000      -0.490641       -13.3510 
  61   2.0000      -0.480099       -13.0642 
  62   2.0000      -0.476002       -12.9527 
  63   2.0000      -0.469358       -12.7719 
  64   2.0000      -0.462194       -12.5769 
  65   2.0000      -0.454587       -12.3699 
  66   2.0000      -0.448695       -12.2096 
  67   2.0000      -0.435961       -11.8631 
  68   2.0000      -0.426589       -11.6081 
  69   2.0000      -0.414385       -11.2760 
  70   2.0000      -0.407700       -11.0941 
  71   2.0000      -0.390351       -10.6220 
  72   2.0000      -0.363731        -9.8976 
  73   2.0000      -0.348007        -9.4697 
  74   2.0000      -0.316188        -8.6039 
  75   2.0000      -0.307633        -8.3711 
  76   2.0000      -0.298303        -8.1172 
  77   2.0000      -0.261747        -7.1225 
  78   2.0000      -0.234291        -6.3754 
  79   0.0000      -0.004255        -0.1158 
  80   0.0000       0.019652         0.5348 
  81   0.0000       0.046805         1.2736 
  82   0.0000       0.056664         1.5419 
  83   0.0000       0.073001         1.9865 
  84   0.0000       0.105625         2.8742 
  85   0.0000       0.112690         3.0664 
  86   0.0000       0.115961         3.1555 
  87   0.0000       0.116246         3.1632 
  88   0.0000       0.121814         3.3147 
  89   0.0000       0.129197         3.5156 
*Only the first 10 virtual orbitals were printed.
-------
TIMINGS
-------

Total SCF time: 0 days 0 hours 0 min 55 sec 

Total time                  ....      55.318 sec
Sum of individual times     ....      54.784 sec  ( 99.0%)

SCF preparation             ....      14.535 sec  ( 26.3%)
Fock matrix formation       ....      31.546 sec  ( 57.0%)
  Startup                   ....       1.205 sec  (  3.8% of F)
  RI-JK                     ....      23.060 sec  ( 73.1% of F)
  XC integration            ....       5.007 sec  ( 15.9% of F)
    XC Preparation          ....       0.000 sec  (  0.0% of XC)
    Basis function eval.    ....       0.433 sec  (  8.6% of XC)
    Density eval.           ....       0.674 sec  ( 13.5% of XC)
    XC-Functional eval.     ....       0.029 sec  (  0.6% of XC)
    XC-Potential eval.      ....       0.848 sec  ( 16.9% of XC)
Diagonalization             ....       0.000 sec  (  0.0%)
Density matrix formation    ....       1.429 sec  (  2.6%)
Total Energy calculation    ....       0.972 sec  (  1.8%)
Population analysis         ....       0.000 sec  (  0.0%)
Orbital Transformation      ....       0.715 sec  (  1.3%)
Orbital Orthonormalization  ....       0.000 sec  (  0.0%)
DIIS solution               ....       4.348 sec  (  7.9%)
SOSCF solution              ....       1.186 sec  (  2.1%)
Finished LeanSCF after  55.7 sec

Maximum memory used throughout the entire LEANSCF-calculation: 146.7 MB


           ************************************************************
           *        Program running with 104 parallel MPI-processes   *
           *              working on a common directory               *
           ************************************************************

------------------------------------------------------------------------------
                                ORCA  MP2 
------------------------------------------------------------------------------


-------------
RI-MP2 ENERGY
-------------
Dimension of the orbital basis            ...  828
Dimension of the AuxC basis               ... 2034
Memory devoted to MP2                     ... 4096 MB   
Data format for matrix containers         ... DOUBLE
Compression type for matrix containers    ... UNCOMPRESSED
Scaling for aa/bb pairs                   ...   5.710e-02
Scaling for ab pairs                      ...   5.979e-01
Overall scaling of the MP2 energy         ...   1.000e+00

-----------------------
SHARK RI TRANSFORMATION
-----------------------

Number of basis functions                ...    828
Number of aux functions                  ...   2034
Number of operators                      ...      1
Generation of IJK                        ... NO
Generation of IAK                        ... YES
Generation of ABK                        ... NO
Orbital Range Operator  0:    0-  78 to   79- 827

Aux basis identifier                     ...   AUXC
Contraction scheme used                  ... SEGMENTED
Do orthogonalization                     ... YES
All operator combinations                ... NO
Transpose (ia|K)                         ... NO
Integral generator used                  ... LIBINT
Starting integral generation + trafo... 
Half trafo (segmented) done. Total time =  0.8 sec. integrals=  0.3 sec trafo=  0.3 sec
Integral generation and half transformation done (  0.8 sec)

Reading or making V^(-1/2)          ... done (  0.1 sec)
Sorting IAK integrals               ... done (  1.6 sec)

SHARK RI integral transformation done. Total time =  2.6 sec.

Opening buffers                              ... done

Starting loop over batches of integrals:

Operator 0  - window                       ... (  0- 78)x( 79-827)
Operator 0  - Memory available             ...  4096 MB
Operator 0  - Memory needed per MO         ...  11.6 MB
Operator 0  - Number of orbitals per batch ... 1
Operator 0  - Number of batches            ... 1

OPERATOR  0   PASS   0:  MOs     0 ...    0 +    1 ...    1 +    2 ...    2 +    3 ...    3
                            +    4 ...    4 +    5 ...    5 +    6 ...    6 +    7 ...    7
                            +    8 ...    8 +    9 ...    9 +   10 ...   10 +   11 ...   11
                            +   12 ...   12 +   13 ...   13 +   14 ...   14 +   15 ...   15
                            +   16 ...   16 +   17 ...   17 +   18 ...   18 +   19 ...   19
                            +   20 ...   20 +   21 ...   21 +   22 ...   22 +   23 ...   23
                            +   24 ...   24 +   25 ...   25 +   26 ...   26 +   27 ...   27
                            +   28 ...   28 +   29 ...   29 +   30 ...   30 +   31 ...   31
                            +   32 ...   32 +   33 ...   33 +   34 ...   34 +   35 ...   35
                            +   36 ...   36 +   37 ...   37 +   38 ...   38 +   39 ...   39
                            +   40 ...   40 +   41 ...   41 +   42 ...   42 +   43 ...   43
                            +   44 ...   44 +   45 ...   45 +   46 ...   46 +   47 ...   47
                            +   48 ...   48 +   49 ...   49 +   50 ...   50 +   51 ...   51
                            +   52 ...   52 +   53 ...   53 +   54 ...   54 +   55 ...   55
                            +   56 ...   56 +   57 ...   57 +   58 ...   58 +   59 ...   59
                            +   60 ...   60 +   61 ...   61 +   62 ...   62 +   63 ...   63
                            +   64 ...   64 +   65 ...   65 +   66 ...   66 +   67 ...   67
                            +   68 ...   68 +   69 ...   69 +   70 ...   70 +   71 ...   71
                            +   72 ...   72 +   73 ...   73 +   74 ...   74 +   75 ...   75
                            +   76 ...   76 +   77 ...   77 +   78 ...   78
  Reading integrals       ... ok
Time spent in pair loops =     4.806 sec

-----------------------------------------------
 RI-MP2 CORRELATION ENERGY:     -2.143130138 Eh
-----------------------------------------------


-------
TIMINGS
-------

Total time                :    8.265 sec
Integral trafo            :    2.651 sec ( 32.1%)
I/O of integrals          :    0.007 sec (  0.1%)
K(i,j) operators          :    0.045 sec (  0.5%)
T(i,j) pair energies      :    0.008 sec (  0.1%)
V**(-1/2)                 :    0.805 sec (  9.7%)


---------------------------------------
MP2 TOTAL ENERGY:     -921.653030649 Eh
---------------------------------------

Maximum memory used throughout the entire MP2-calculation: 112.5 MB


-------------------------------------------------------------------------------
                          DFT DISPERSION CORRECTION                            
                                                                               
                                DFTD4 V3.4.0                                   
-------------------------------------------------------------------------------
The REV-DSD-PBEP86-2021 functional is recognized
A user input s6-coefficient scaling factor has been recognized
A user input a1-coefficient scaling factor has been recognized
A user input s8-coefficient scaling factor has been recognized
A user input a2-coefficient scaling factor has been recognized
A user input s9-coefficient scaling factor has been recognized
Active option DFTDOPT                   ...         5   

-------------------------   ----------------
Dispersion correction           -0.038426896
-------------------------   ----------------


-------------------------   --------------------
FINAL SINGLE POINT ENERGY      -921.691457544940
-------------------------   --------------------



           ************************************************************
           *        Program running with 104 parallel MPI-processes   *
           *              working on a common directory               *
           ************************************************************

------------------------------------------------------------------------------
                              ORCA PROPERTY CALCULATIONS
------------------------------------------------------------------------------

GBWName                                 ... compas3D_hc_c24h14_0pent_2_tz_riri.gbw
Number of atoms                         ...     38
Number of basis functions               ...    828
Max core memory                         ...   1024 MB

Electric properties:
Dipole moment                           ... YES
Quadrupole moment                       ...  NO
Static polarizability (Dipole/Dipole)   ...  NO
Static polarizability (Dipole/Quad.)    ...  NO
Static polarizability (Quad./Quad.)     ...  NO
Static polarizability (Velocity)        ...  NO

Atomic electric properties:
Dipole moment                           ...  NO
Quadrupole moment                       ...  NO
Static polarizability                   ...  NO

Choice of electric origin               ... Center of mass
Position of electric origin             ...     0.040158    -0.130439    -0.041575

General magnetic properties:
Magnetizability                         ...  NO

EPR properties:
g-Tensor (aka g-matrix)                 ...  NO
Zero-Field splitting spin-orbit         ...  NO
Zero-field splitting spin-spin          ...  NO
Hyperfine couplings                     ...  NO (   0 nuclei)
Quadrupole couplings                    ...  NO (   0 nuclei)
Contact density                         ...  NO (   0 nuclei)

NMR properties:
Chemical shifts                         ...  NO (   0 nuclei)
Spin-rotation constants                 ...  NO (   0 nuclei)
Spin-spin couplings                     ...  NO (   0 nuclei,    0 pairs)

Choice of magnetic origin               ... GIAO
Position of magnetic origin             ...     0.000000     0.000000     0.000000

Properties with geometric perturbations:
SCF Hessian                             ...  NO
IR spectrum                             ...  NO
VCD spectrum                            ...  NO
X-ray spectroscopy properties:
SCF XES/XAS/RIXS spectra                ...  NO


-------------
DIPOLE MOMENT
-------------

Method             : SCF
Type of density    : Electron Density
Multiplicity       :   1
Irrep              :   0
Energy             :  -919.5099005113324893 Eh
Relativity type    : 
Basis              : AO
                                X                 Y                 Z
Electronic contribution:      0.846295102      -2.698899055      -0.842642584
Nuclear contribution   :     -0.827007422       2.688292852       0.854143638
                        -----------------------------------------
Total Dipole Moment    :      0.019287680      -0.010606203       0.011501054
                        -----------------------------------------
Magnitude (a.u.)       :      0.024835064
Magnitude (Debye)      :      0.063125716



--------------------
Rotational spectrum 
--------------------
 
Rotational constants in cm-1:             0.012166             0.008205             0.005007 
Rotational constants in MHz :           364.731635           245.965361           150.101439 

Dipole components along the rotational axes: 
x,y,z [a.u.] :    -0.018330    -0.004753     0.016069 
x,y,z [Debye]:    -0.046590    -0.012080     0.040844 

 

Dipole moment calculation done in   0.1 sec 

Maximum memory used throughout the entire PROP-calculation: 70.9 MB

--------------------------------
SUGGESTED CITATIONS FOR THIS RUN
--------------------------------

Below you find a list of papers that are relevant to this ORCA run
We neither can nor want to force you to cite these papers, but we appreciate if you do
You receive ORCA, which is the product of decades of hard work by many enthusiastic individuals, for free
The only thing we kindly ask in return is that you cite our papers,
We deeply appreciate it, if you show your appreciation for ORCA by not just citing the generic ORCA reference.

Please note that relegating all ORCA citations to the supporting information does *not* help us.
SI sections are not indexed - citations you put there will not count into any citation statistics
But we need these citations in order to attract the funding resources that allow us to do what we are doing

Therefore, if you are a happy ORCA user, please consider citing a few of the papers listed below in the main body of your paper

In addition to the list printed below, the program has created the file compas3D_hc_c24h14_0pent_2_tz_riri.bibtex that contains the list in bibtex format
You can import this file easily into all common literature databanks and citation aid programs


List of essential papers. We consider these as the minimum necessary citations

  1. Neese,F.
     Software update: the ORCA program system, version 5.0
     WIRES Comput. Molec. Sci., 2022 12(1)e1606
     doi.org/10.1002/wcms.1606

List of papers to cite with high priority. The work reported in these papers was absolutely
necessary for this run to complete.
Our perspective: the developers of density functionals and basis sets usually get cited in chemistry papers
Good! But without the algorithms to do something with them, the functionals or basis sets would not do anything.
Hence, in our opinion, the algorithm design and method developments papers are equally worthy of getting cited

  1. Neese,F.
     An improvement of the resolution of the identity approximation for the formation of the Coulomb matrix
     J. Comp. Chem., 2003 24(14)1740-1747
     doi.org/10.1002/jcc.10318
  2. Kossmann,S.; Neese,F.
     Comparison of two efficient approximate Hartee-Fock approaches
     Chem. Phys. Lett., 2009 481 240-243
     doi.org/10.1016/j.cplett.2009.09.073
  3. Neese,F.
     The SHARK Integral Generation and Digestion System
     J. Comp. Chem., 2022  1-16
     doi.org/10.1002/jcc.26942
  4. Caldeweyher,E.; Bannwarth,C.; Grimme,S.
     Extension of the D3 dispersion coefficient model
     J. Chem. Phys., 2017 147 034112
     doi.org/10.1063/1.4993215
  5. Caldeweyher,E.; Ehlert,S.; Hansen,A.; Neugebauer,H.; Spicher,S.; Bannwarth,C.; Grimme,S.
     A generally applicable atomic-charge dependent London dispersion correction
     J. Chem. Phys., 2019 150 154122
     doi.org/10.1063/1.5090222
  6. Caldeweyher,E.; Mewes,J.; Ehlert,S.; Grimme,S.
     Extension and evaluation of the D4 London-dispersion model for periodic systems
     Phys. Chem. Chem. Phys., 2020 22(16)8499-8512
     doi.org/10.1039/D0CP00502A
  7. Wittmann,L.; Gordiy,I.; Friede,M.; Helmich-Paris,B.; Grimme,S.; Hansen,A.; Bursch,M.
     Extension of the D3 and D4 London Dispersion Corrections to the full Actinides Series
     Phys. Chem. Chem. Phys., 2024 26(32)21379-21394
     doi.org/https://doi.org/10.1039/D4CP01514B 

List of suggested additional citations. These are papers that are important in the 'surrounding' of 
of this run, or papers that preceded the highly important papers. If you like your results we are grateful for a citation.

  1. Neese,F.
     The ORCA program system
     WIRES Comput. Molec. Sci., 2012 2(1)73-78
     doi.org/10.1002/wcms.81
  2. Neese,F.
     Software update: the ORCA program system, version 4.0
     WIRES Comput. Molec. Sci., 2018 8(1)1-6
     doi.org/10.1002/wcms.1327
  3. Neese,F.; Wennmohs,F.; Becker,U.; Riplinger,C.
     The ORCA quantum chemistry program package
     J. Chem. Phys., 2020 152 Art. No. L224108
     doi.org/10.1063/5.0004608

List of optional additional citations

  1. Neese,F.
     Approximate second-order SCF convergence for spin unrestricted wavefunctions
     Chem. Phys. Lett., 2000 325(1-3)93-98
     doi.org/10.1016/s0009-2614(00)00662-x

Timings for individual modules:

Sum of individual times          ...      138.893 sec (=   2.315 min)
Startup calculation              ...       24.139 sec (=   0.402 min)  17.4 %
SCF iterations                   ...       74.276 sec (=   1.238 min)  53.5 %
Property calculations            ...       16.085 sec (=   0.268 min)  11.6 %
MP2 module                       ...       24.393 sec (=   0.407 min)  17.6 %
                             ****ORCA TERMINATED NORMALLY****
TOTAL RUN TIME: 0 days 0 hours 2 minutes 47 seconds 595 msec
