
                                 *****************
                                 * O   R   C   A *
                                 *****************

                                            #,                                       
                                            ###                                      
                                            ####                                     
                                            #####                                    
                                            ######                                   
                                           ########,                                 
                                     ,,################,,,,,                         
                               ,,#################################,,                 
                          ,,##########################################,,             
                       ,#########################################, ''#####,          
                    ,#############################################,,   '####,        
                  ,##################################################,,,,####,       
                ,###########''''           ''''###############################       
              ,#####''   ,,,,##########,,,,          '''####'''          '####       
            ,##' ,,,,###########################,,,                        '##       
           ' ,,###''''                  '''############,,,                           
         ,,##''                                '''############,,,,        ,,,,,,###''
      ,#''                                            '''#######################'''  
     '                                                          ''''####''''         
             ,#######,   #######,   ,#######,      ##                                
            ,#'     '#,  ##    ##  ,#'     '#,    #''#        ,####,   ,####,        
            ##       ##  ##   ,#'  ##            #'  '#       #'       #'  '#        
            ##       ##  #######   ##           ,######,      #####,   #    #        
            '#,     ,#'  ##    ##  '#,     ,#' ,#      #,     #,   #   #,  ,#        
             '#######'   ##     ##  '#######'  #'      '#     '####' # '####'        



                #########################################################
                #                        -***-                          #
                #          Department of theory and spectroscopy        #
                #                                                       #
                #                      Frank Neese                      #
                #                                                       #
                #     Directorship, Architecture, Infrastructure        #
                #                    SHARK, DRIVERS                     #
                #        Core code/Algorithms in most modules           #
                #                                                       #
                #        Max Planck Institute fuer Kohlenforschung      #
                #                Kaiser Wilhelm Platz 1                 #
                #                 D-45470 Muelheim/Ruhr                 #
                #                      Germany                          #
                #                                                       #
                #                  All rights reserved                  #
                #                        -***-                          #
                #########################################################


                         Program Version 6.0.1  -  RELEASE   -


 With contributions from (in alphabetic order):
[Max-Planck-Institut fuer Kohlenforschung]                               
  Daniel Aravena         : Magnetic Suceptibility                        
  Michael Atanasov       : Ab Initio Ligand Field Theory (pilot matlab implementation)
  Alexander A. Auer      : GIAO ZORA, VPT2 properties, NMR spectrum      
  Ute Becker             : All parallelization in ORCA, NUMFREQ, NUMCALC 
  Giovanni Bistoni       : ED, misc. LED, open-shell LED, HFLD           
  Martin Brehm           : Molecular dynamics                            
  Dmytro Bykov           : pre 5.0 version of the SCF Hessian            
  Marcos Casanova-Páez   : Triplet and SCS-CIS(D). UHF-(DLPNO)-IP/EA/STEOM-CCSD. UHF-CVS-IP/STEOM-CCSD   
  Vijay G. Chilkuri      : MRCI spin determinant printing, contributions to CSF-ICE 
  Pauline Colinet        : FMM embedding                                 
  Dipayan Datta          : RHF DLPNO-CCSD density                        
  Achintya Kumar Dutta   : EOM-CC, STEOM-CC                              
  Nicolas Foglia         : Exact transition moments, OPA infrastructure, MCD improvements    
  Dmitry Ganyushin       : Spin-Orbit,Spin-Spin,Magnetic field MRCI      
  Miquel Garcia-Rates    : C-PCM and meta-GGA Hessian, CCSD/C-PCM, Gaussian charge scheme 
  Tiago L. C. Gouveia    : GS-ROHF, GS-ROCIS                             
  Yang Guo               : DLPNO-NEVPT2, F12-NEVPT2, CIM, IAO-localization        
  Andreas Hansen         : Spin unrestricted coupled pair/coupled cluster methods 
  Ingolf Harden          : AUTO-CI MPn and infrastructure                
  Benjamin Helmich-Paris : MC-RPA, TRAH-(SCF,CASSCF), AVAS, COSX integrals, SCF dyn. polar. 
  Lee Huntington         : MR-EOM, pCC                                   
  Robert Izsak           : Overlap fitted RIJCOSX, COSX-SCS-MP3, EOM     
  Riya Kayal             : Wick's Theorem for AUTO-CI, AUTO-CI UHF-CCSDT 
  Emily Kempfer          : AUTO-CI, RHF CISDT and CCSDT                  
  Christian Kollmar      : KDIIS, OOCD, Brueckner-CCSD(T), CCSD density, CASPT2, CASPT2-K, improved NEVPT2 
  Axel Koslowski         : Symmetry handling                             
  Simone Kossmann        : meta-GGA functionals, TD-DFT gradient, OOMP2, (MP2 Hessian; deprecated post 5.0) 
  Lucas Lang             : DCDCAS                                        
  Marvin Lechner         : AUTO-CI (C++ implementation), FIC-MRCC        
  Spencer Leger          : CASSCF response                               
  Dagmar Lenk            : GEPOL surface, SMD, ORCA-2-JSON               
  Dimitrios Liakos       : Extrapolation schemes; Compound Job, initial MDCI parallelization 
  Dimitrios Manganas     : Further ROCIS development; embedding schemes. LFT, Crystal Embedding 
  Dimitrios Pantazis     : SARC Basis sets                               
  Anastasios Papadopoulos: AUTO-CI, single reference methods and gradients 
  Taras Petrenko         : pre 6.0 DFT Hessian and TD-DFT gradient, (ASA, deprecated), ECA, 1-Electron XAS/XES, NRVS 
  Peter Pinski           : DLPNO-MP2, DLPNO-MP2 Gradient                 
  Christoph Reimann      : Effective Core Potentials                     
  Marius Retegan         : Local ZFS, SOC                                
  Christoph Riplinger    : Optimizer, TS searches, QM/MM, DLPNO-CCSD(T), (RO)-DLPNO pert. Triples 
  Michael Roemelt        : Original ROCIS implementation                 
  Masaaki Saitow         : Open-shell DLPNO-CCSD energy and density      
  Barbara Sandhoefer     : DKH picture change effects                    
  Kantharuban Sivalingam : CASSCF convergence/infrastructure, NEVPT2 and variants, FIC-MRCI 
  Bernardo de Souza      : ESD, SOC TD-DFT                               
  Georgi L. Stoychev     : AutoAux, RI-MP2 NMR, DLPNO-MP2 response, X2C  
  Van Anh Tran           : RI-MP2 g-tensors                              
  Willem Van den Heuvel  : Paramagnetic NMR                              
  Zikuan Wang            : NOTCH, Electric field optimization            
  Frank Wennmohs         : Technical directorship and infrastructure     
  Hang Xu                : AUTO-CI-Response properties                   
                                                                         
[FACCTs GmbH]                                                            
  Markus Bursch, Miquel Garcia-Rates, Christoph Riplinger, Bernardo de Souza, Georgi L. Stoychev 
                                                                 
  APM, Basis sets (HGBS, AHGBS, def-TZVP (Ac-Lr), def2-XVPD (La-Lu)), CI-OPT, improved COSX, DLPNO-Multilevel,           
  DOCKER, DRACO, updates on ESD, GOAT, IRC, LR-CPCM, MBIS, meta-GGA TD-DFT gradient, ML-optimized integration grids, 
  MM, NACMEs, nearIR, NEB, NEB-TS, NL-DFT gradient (VV10), 2- and 3-layer-ONIOM, interface openCOSMO-RS, QMMM,   
  Crystal-QMMM, SF, symmetry and pop. for TD-DFT, r2SCAN hybrids, SOLVATOR                                   
                                                                         
[Other institutions]                                                     
  V. Asgeirsson          : NEB                                           
  Christoph Bannwarth    : sTDA-DFT, sTD-DFT, PBEh-3c, B97-3c, D3        
  Sebastian Ehlert       : rSCAN, r2SCAN, r2SCAN-3c, D4, dhf basis sets  
  Marvin Friede          : D4 for Fr, Ra, Ac-Lr                          
  Lars Goerigk           : TD-DFT with DH, B97 family of functionals     
  Stefan Grimme          : VdW corrections, initial TS optimization, DFT functionals, gCP, sTDA/sTD-DF 
  Waldemar Hujo          : DFT-NL                                        
  H. Jonsson             : NEB                                           
  Holger Kruse           : gCP                                           
  Marcel Mueller         : wB97X-3c, vDZP basis set                      
  Hagen Neugebauer       : wr2SCAN                                       
  Tobias Risthaus        : range-separated hybrid DFT                    
  Lukas Wittmann         : regularized MP2, r2SCAN double-hybrids, wr2SCAN        
                                                                         
We gratefully acknowledge several colleagues who have allowed us to      
interface, adapt or use parts of their codes:                            
  Ed Valeev, F. Pavosevic, A. Kumar             : LibInt (2-el integral package), F12 methods 
  Garnet Chan, S. Sharma, J. Yang, R. Olivares  : DMRG                   
  Ulf Ekstrom                                   : XCFun DFT Library      
  Mihaly Kallay                                 : mrcc  (arbitrary order and MRCC methods)
  Frank Weinhold                                : gennbo (NPA and NBO analysis)           
  Simon Mueller                                 : openCOSMO-RS                            
  Christopher J. Cramer and Donald G. Truhlar   : smd solvation model                     
  S Lehtola, MJT Oliveira, MAL Marques          : LibXC Library                           
  Liviu Ungur et al                             : ANISO software                          


 Your calculation uses the libint2 library for the computation of 2-el integrals
 For citations please refer to: http://libint.valeyev.net

 Your ORCA version has been built with support for libXC version: 6.2.2
 For citations please refer to: https://libxc.gitlab.io

 This ORCA versions uses:
   CBLAS   interface :  Fast vector & matrix operations
   LAPACKE interface :  Fast linear algebra routines
   SCALAPACK package :  Parallel linear algebra routines
   Shared memory     :  Shared parallel matrices
   BLAS/LAPACK       :  OpenBLAS 0.3.27  USE64BITINT DYNAMIC_ARCH NO_AFFINITY SapphireRapids SINGLE_THREADED
        Core in use  :  SapphireRapids
   Copyright (c) 2011-2014, The OpenBLAS Project


Warning! Weird basis set assignment to AuxJK basis!


***************************************
The coordinates will be read from file: /scratch/kx58/rs2200/dhdft/inputs/compas3x-xyzs/hc_c16h10_0pent_1.xyz
***************************************


Your calculation utilizes the atom-pairwise dispersion correction
based on EEQ partial charges (D4)


================================================================================

----- Orbital basis set information -----
Your calculation utilizes the basis: def2-QZVPP
   F. Weigend and R. Ahlrichs, Phys. Chem. Chem. Phys. 7, 3297 (2005).

----- AuxC basis set information -----
Your calculation utilizes the auxiliary basis: def2-QZVPP/C
  H-La, Hf-Rn : A. Hellweg, C. Hattig, S. Hofener and W. Klopper, Theor. Chem. Acc. 117, 587 (2007).
        Ce-Lu : J. Chmela and M. E. Harding, Mol. Phys. (2018).

----- AuxJK basis set information -----
Your calculation utilizes the auxiliary basis: def2-QZVPP/C
  H-La, Hf-Rn : A. Hellweg, C. Hattig, S. Hofener and W. Klopper, Theor. Chem. Acc. 117, 587 (2007).
        Ce-Lu : J. Chmela and M. E. Harding, Mol. Phys. (2018).

================================================================================
                                        WARNINGS
                       Please study these warnings very carefully!
================================================================================


WARNING: No MP2 level density has been requested!
         To calculate MP2 level properties use
         %mp2 Density relaxed end
         or
         %mp2 Density unrelaxed end
         Otherwise for double-hybrid DFT only the energy is correct!

================================================================================
                                       INPUT FILE
================================================================================
NAME = compas3x_hc_c16h10_0pent_1_qz_riri.inp
|  1> ! RKS revDSD-PBEP86-D4/2021 defgrid3  RIJK NOPOP NoFrozencore NoUseSym
|  2> 
|  3> %basis
|  4> Basis "def2-QZVPP"
|  5> AuxJK "def2-QZVPP/C"
|  6> AuxC "def2-QZVPP/C"
|  7> end
|  8> 
|  9> %method
| 10> ScalHFX 0.69
| 11> ScalDFX 0.31
| 12> ScalDFC 0.4038
| 13> ScalLDAC 0.4038
| 14> 
| 15> D4S6 0.4612
| 16> D4S8 0.0
| 17> D4A1 0.44
| 18> D4A2 3.60
| 19> end
| 20> 
| 21> %mp2
| 22> PS 0.5979
| 23> PT 0.0571
| 24> 
| 25> end
| 26> 
| 27> %pal
| 28> nprocs 104
| 29> end
| 30> 
| 31> *XYZFILE 0 1 /scratch/kx58/rs2200/dhdft/inputs/compas3x-xyzs/hc_c16h10_0pent_1.xyz
| 32> 
| 33>                          ****END OF INPUT****
================================================================================

                       ****************************
                       * Single Point Calculation *
                       ****************************

---------------------------------
CARTESIAN COORDINATES (ANGSTROEM)
---------------------------------
  C      1.857514    0.249778    0.000482
  C      0.592220   -0.387507    0.000105
  C     -0.592066    0.387507   -0.000034
  C     -0.514577    1.802108    0.000200
  C      0.772986    2.416309    0.000544
  C      1.904935    1.675546    0.000678
  C      3.011607   -0.534782    0.000718
  C      2.926555   -1.915129    0.000505
  C      1.695678   -2.545632    0.000065
  C      0.514731   -1.802108   -0.000109
  C     -0.772833   -2.416309   -0.000544
  C     -1.904781   -1.675545   -0.000672
  C     -1.857360   -0.249778   -0.000378
  C     -3.011453    0.534782   -0.000470
  C     -2.926401    1.915129   -0.000171
  C     -1.695524    2.545632    0.000166
  H      0.820127    3.496398    0.000833
  H      2.875838    2.151112    0.001066
  H      3.978137   -0.051102    0.001060
  H      3.830761   -2.506855    0.000665
  H      1.639352   -3.624962   -0.000140
  H     -0.819973   -3.496398   -0.000887
  H     -2.875684   -2.151112   -0.001126
  H     -3.977983    0.051102   -0.000782
  H     -3.830607    2.506854   -0.000202
  H     -1.639198    3.624962    0.000428

----------------------------
CARTESIAN COORDINATES (A.U.)
----------------------------
  NO LB      ZA    FRAG     MASS         X           Y           Z
   0 C     6.0000    0    12.011    3.510193    0.472012    0.000911
   1 C     6.0000    0    12.011    1.119134   -0.732282    0.000197
   2 C     6.0000    0    12.011   -1.118843    0.732282   -0.000064
   3 C     6.0000    0    12.011   -0.972409    3.405491    0.000377
   4 C     6.0000    0    12.011    1.460733    4.566162    0.001028
   5 C     6.0000    0    12.011    3.599806    3.166322    0.001281
   6 C     6.0000    0    12.011    5.691113   -1.010592    0.001358
   7 C     6.0000    0    12.011    5.530387   -3.619069    0.000954
   8 C     6.0000    0    12.011    3.204367   -4.810548    0.000122
   9 C     6.0000    0    12.011    0.972700   -3.405491   -0.000205
  10 C     6.0000    0    12.011   -1.460442   -4.566162   -0.001028
  11 C     6.0000    0    12.011   -3.599515   -3.166322   -0.001269
  12 C     6.0000    0    12.011   -3.509902   -0.472012   -0.000713
  13 C     6.0000    0    12.011   -5.690822    1.010591   -0.000889
  14 C     6.0000    0    12.011   -5.530096    3.619069   -0.000322
  15 C     6.0000    0    12.011   -3.204077    4.810548    0.000314
  16 H     1.0000    0     1.008    1.549816    6.607235    0.001574
  17 H     1.0000    0     1.008    5.434546    4.065012    0.002015
  18 H     1.0000    0     1.008    7.517590   -0.096570    0.002002
  19 H     1.0000    0     1.008    7.239089   -4.737269    0.001256
  20 H     1.0000    0     1.008    3.097926   -6.850186   -0.000265
  21 H     1.0000    0     1.008   -1.549524   -6.607235   -0.001675
  22 H     1.0000    0     1.008   -5.434255   -4.065012   -0.002128
  23 H     1.0000    0     1.008   -7.517299    0.096569   -0.001478
  24 H     1.0000    0     1.008   -7.238799    4.737268   -0.000381
  25 H     1.0000    0     1.008   -3.097636    6.850186    0.000808

--------------------------------
INTERNAL COORDINATES (ANGSTROEM)
--------------------------------
 C      0   0   0     0.000000000000     0.00000000     0.00000000
 C      1   0   0     1.416722153586     0.00000000     0.00000000
 C      2   1   0     1.415337534888   120.06587791     0.00000000
 C      3   2   1     1.416722120223   120.06587917     0.00000000
 C      4   3   2     1.426555901449   118.63776806     0.00000000
 C      5   4   3     1.352789160458   121.29635233     0.00000000
 C      1   2   3     1.395516032067   119.05906234   179.99501239
 C      7   1   2     1.382964888688   120.68220120     0.00000000
 C      8   7   1     1.382964898888   120.64922287     0.00000000
 C      9   8   7     1.395515996584   120.68219996     0.00000000
 C     10   9   8     1.426555834318   122.30316047   180.00080381
 C     11  10   9     1.352789107980   121.29635176   179.99833911
 C      3   2   1     1.416722121592   120.06587378   180.00158151
 C     13   3   2     1.395516005914   119.05906635   179.99821063
 C     14  13   3     1.382964883513   120.68219858     0.00000000
 C     15  14  13     1.382964897632   120.64922359     0.00000000
 H      5   4   3     1.081117476216   118.00143291   180.00677513
 H      6   5   4     1.081117484713   120.70221636   180.00782320
 H      7   1   2     1.080799038404   119.20716993   180.00321516
 H      8   7   1     1.080614750830   119.67539295   179.99825119
 H      9   8   7     1.080799024972   120.11063659   179.99752255
 H     11  10   9     1.081117470807   118.00142886     0.00000000
 H     12  11  10     1.081117442108   120.70221657   179.99235867
 H     14  13   3     1.080799015539   119.20716485   179.99698267
 H     15  14  13     1.080614741125   119.67538561   180.00282259
 H     16  15  14     1.080799004181   120.11063274   180.00178087

---------------------------
INTERNAL COORDINATES (A.U.)
---------------------------
 C      0   0   0     0.000000000000     0.00000000     0.00000000
 C      1   0   0     2.677216878136     0.00000000     0.00000000
 C      2   1   0     2.674600327998   120.06587791     0.00000000
 C      3   2   1     2.677216815090   120.06587917     0.00000000
 C      4   3   2     2.695799968469   118.63776806     0.00000000
 C      5   4   3     2.556401030202   121.29635233     0.00000000
 C      1   2   3     2.637143116104   119.05906234   179.99501239
 C      7   1   2     2.613424892450   120.68220120     0.00000000
 C      8   7   1     2.613424911725   120.64922287     0.00000000
 C      9   8   7     2.637143049050   120.68219996     0.00000000
 C     10   9   8     2.695799841608   122.30316047   180.00080381
 C     11  10   9     2.556400931033   121.29635176   179.99833911
 C      3   2   1     2.677216817676   120.06587378   180.00158151
 C     13   3   2     2.637143066681   119.05906635   179.99821063
 C     14  13   3     2.613424882671   120.68219858     0.00000000
 C     15  14  13     2.613424909350   120.64922359     0.00000000
 H      5   4   3     2.043015948644   118.00143291   180.00677513
 H      6   5   4     2.043015964702   120.70221636   180.00782320
 H      7   1   2     2.042414188389   119.20716993   180.00321516
 H      8   7   1     2.042065935343   119.67539295   179.99825119
 H      9   8   7     2.042414163007   120.11063659   179.99752255
 H     11  10   9     2.043015938423   118.00142886     0.00000000
 H     12  11  10     2.043015884189   120.70221657   179.99235867
 H     14  13   3     2.042414145180   119.20716485   179.99698267
 H     15  14  13     2.042065917004   119.67538561   180.00282259
 H     16  15  14     2.042414123717   120.11063274   180.00178087

---------------------
BASIS SET INFORMATION
---------------------
There are 2 groups of distinct atoms

 Group   1 Type C   : 15s8p3d2f1g contracted to 7s4p3d2f1g pattern {8211111/5111/111/11/1}
 Group   2 Type H   : 7s3p2d1f contracted to 4s3p2d1f pattern {4111/111/11/1}

Atom   0C    basis set group =>   1
Atom   1C    basis set group =>   1
Atom   2C    basis set group =>   1
Atom   3C    basis set group =>   1
Atom   4C    basis set group =>   1
Atom   5C    basis set group =>   1
Atom   6C    basis set group =>   1
Atom   7C    basis set group =>   1
Atom   8C    basis set group =>   1
Atom   9C    basis set group =>   1
Atom  10C    basis set group =>   1
Atom  11C    basis set group =>   1
Atom  12C    basis set group =>   1
Atom  13C    basis set group =>   1
Atom  14C    basis set group =>   1
Atom  15C    basis set group =>   1
Atom  16H    basis set group =>   2
Atom  17H    basis set group =>   2
Atom  18H    basis set group =>   2
Atom  19H    basis set group =>   2
Atom  20H    basis set group =>   2
Atom  21H    basis set group =>   2
Atom  22H    basis set group =>   2
Atom  23H    basis set group =>   2
Atom  24H    basis set group =>   2
Atom  25H    basis set group =>   2
---------------------------------
AUXILIARY/C BASIS SET INFORMATION
---------------------------------
There are 2 groups of distinct atoms

 Group   1 Type C   : 9s8p7d5f3g1h contracted to 9s8p7d5f3g1h pattern {111111111/11111111/1111111/11111/111/1}
 Group   2 Type H   : 6s4p3d2f1g contracted to 6s4p3d2f1g pattern {111111/1111/111/11/1}

Atom   0C    basis set group =>   1
Atom   1C    basis set group =>   1
Atom   2C    basis set group =>   1
Atom   3C    basis set group =>   1
Atom   4C    basis set group =>   1
Atom   5C    basis set group =>   1
Atom   6C    basis set group =>   1
Atom   7C    basis set group =>   1
Atom   8C    basis set group =>   1
Atom   9C    basis set group =>   1
Atom  10C    basis set group =>   1
Atom  11C    basis set group =>   1
Atom  12C    basis set group =>   1
Atom  13C    basis set group =>   1
Atom  14C    basis set group =>   1
Atom  15C    basis set group =>   1
Atom  16H    basis set group =>   2
Atom  17H    basis set group =>   2
Atom  18H    basis set group =>   2
Atom  19H    basis set group =>   2
Atom  20H    basis set group =>   2
Atom  21H    basis set group =>   2
Atom  22H    basis set group =>   2
Atom  23H    basis set group =>   2
Atom  24H    basis set group =>   2
Atom  25H    basis set group =>   2
----------------------------------
AUXILIARY/JK BASIS SET INFORMATION
----------------------------------
There are 2 groups of distinct atoms

 Group   1 Type C   : 9s8p7d5f3g1h contracted to 9s8p7d5f3g1h pattern {111111111/11111111/1111111/11111/111/1}
 Group   2 Type H   : 6s4p3d2f1g contracted to 6s4p3d2f1g pattern {111111/1111/111/11/1}

Atom   0C    basis set group =>   1
Atom   1C    basis set group =>   1
Atom   2C    basis set group =>   1
Atom   3C    basis set group =>   1
Atom   4C    basis set group =>   1
Atom   5C    basis set group =>   1
Atom   6C    basis set group =>   1
Atom   7C    basis set group =>   1
Atom   8C    basis set group =>   1
Atom   9C    basis set group =>   1
Atom  10C    basis set group =>   1
Atom  11C    basis set group =>   1
Atom  12C    basis set group =>   1
Atom  13C    basis set group =>   1
Atom  14C    basis set group =>   1
Atom  15C    basis set group =>   1
Atom  16H    basis set group =>   2
Atom  17H    basis set group =>   2
Atom  18H    basis set group =>   2
Atom  19H    basis set group =>   2
Atom  20H    basis set group =>   2
Atom  21H    basis set group =>   2
Atom  22H    basis set group =>   2
Atom  23H    basis set group =>   2
Atom  24H    basis set group =>   2
Atom  25H    basis set group =>   2


           ************************************************************
           *        Program running with 104 parallel MPI-processes   *
           *              working on a common directory               *
           ************************************************************
------------------------------------------------------------------------------
                             ORCA STARTUP CALCULATIONS
                           -- RI-GTO INTEGRALS CHOSEN --
------------------------------------------------------------------------------
------------------------------------------------------------------------------
                   ___                                                        
                  /   \      - P O W E R E D   B Y -                         
                 /     \                                                     
                 |  |  |   _    _      __       _____    __    __             
                 |  |  |  | |  | |    /  \     |  _  \  |  |  /  |          
                  \  \/   | |  | |   /    \    | | | |  |  | /  /          
                 / \  \   | |__| |  /  /\  \   | |_| |  |  |/  /          
                |  |  |   |  __  | /  /__\  \  |    /   |      \           
                |  |  |   | |  | | |   __   |  |    \   |  |\   \          
                \     /   | |  | | |  |  |  |  | |\  \  |  | \   \       
                 \___/    |_|  |_| |__|  |__|  |_| \__\ |__|  \__/        
                                                                              
                      - O R C A' S   B I G   F R I E N D -                    
                                      &                                       
                       - I N T E G R A L  F E E D E R -                       
                                                                              
 v1 FN, 2020, v2 2021, v3 2022-2024                                           
------------------------------------------------------------------------------


----------------------
SHARK INTEGRAL PACKAGE
----------------------

Number of atoms                             ...     26
Number of basis functions                   ...   1212
Number of shells                            ...    372
Maximum angular momentum                    ...      4
Integral batch strategy                     ... SHARK/LIBINT Hybrid
RI-J (if used) integral strategy            ... SPLIT-RIJ (Revised 2003 algorithm where possible)
Printlevel                                  ...      1
Contraction scheme used                     ... SEGMENTED contraction
Prescreening option                         ... SCHWARTZ
   Thresh                                   ... 1.000e-10
   Tcut                                     ... 1.000e-11
   Tpresel                                  ... 1.000e-11 
Coulomb Range Separation                    ... NOT USED
Exchange Range Separation                   ... NOT USED
Multipole approximations                    ... NOT USED
Finite Nucleus Model                        ... NOT USED
CABS basis                                  ... NOT available
Auxiliary Coulomb fitting basis             ... NOT available
Auxiliary J/K fitting basis                 ... AVAILABLE
   # of basis functions in Aux-JK           ...   2816
   # of shells in Aux-JK                    ...    688
   Maximum angular momentum in Aux-JK       ...      5
Auxiliary Correlation fitting basis         ... AVAILABLE
   # of basis functions in Aux-C            ...   2816
   # of shells in Aux-C                     ...    688
   Maximum angular momentum in Aux-C        ...      5
Auxiliary 'external' fitting basis          ... NOT available

Checking pre-screening integrals            ... done (  0.0 sec) Dimension = 372
Check shell pair data                       ... done (  0.0 sec)
Shell pair information
Shell pair cut-off parameter TPreSel        ...   1.0e-11
Total number of shell pairs                 ...     69378
Shell pairs after pre-screening             ...     50165
Total number of primitive shell pairs       ...    177399
Primitive shell pairs kept                  ...     91941
          la=0 lb=0:   7620 shell pairs
          la=1 lb=0:  10878 shell pairs
          la=1 lb=1:   3712 shell pairs
          la=2 lb=0:   7078 shell pairs
          la=2 lb=1:   4982 shell pairs
          la=2 lb=2:   1714 shell pairs
          la=3 lb=0:   4268 shell pairs
          la=3 lb=1:   3054 shell pairs
          la=3 lb=2:   1962 shell pairs
          la=3 lb=3:    622 shell pairs
          la=4 lb=0:   1688 shell pairs
          la=4 lb=1:   1196 shell pairs
          la=4 lb=2:    800 shell pairs
          la=4 lb=3:    484 shell pairs
          la=4 lb=4:    107 shell pairs

Calculating one electron integrals          ... done (  0.9 sec)
Calculating RI/JK V-Matrix + Cholesky decomp... done (  0.8 sec)
Calculating RI/C V-Matrix + Cholesky decomp.... done (  0.8 sec)
Calculating Nuclear repulsion               ... done (  0.0 sec) ENN=    972.570575562129 Eh

Diagonalization of the overlap matrix:
Smallest eigenvalue                        ... 3.071e-06
Time for diagonalization                   ...    0.334 sec
Threshold for overlap eigenvalues          ... 1.000e-07
Number of eigenvalues below threshold      ... 0
Time for construction of square roots      ...    0.192 sec
Total time needed                          ...    0.560 sec

-------------------
DFT GRID GENERATION
-------------------

General Integration Accuracy     IntAcc      ... 4.959
Radial Grid Type                 RadialGrid  ... OptM3 with GC (2021)
Angular Grid (max. ang.)         AngularGrid ... 6 (Lebedev-590)
Angular grid pruning method      GridPruning ... 4 (adaptive)
Weight generation scheme         WeightScheme... mBecke (2022)
Basis function cutoff            BFCut       ... 1.0000e-10
Integration weight cutoff        WCut        ... 1.0000e-14
Partially contracted basis set               ... off
Rotationally invariant grid construction     ... off
Angular grids for H and He will be reduced by one unit
Diffuse basis detected: some atoms will have their outermost
                        angular grid increased by 1.

Total number of grid points                  ...   319086
Total number of batches                      ...     4994
Average number of points per batch           ...       63
Average number of grid points per atom       ...    12273
Initializing property integral containers    ... done (  0.0 sec)

SHARK setup successfully completed in   7.4 seconds

Maximum memory used throughout the entire STARTUP-calculation: 121.3 MB


           ************************************************************
           *        Program running with 104 parallel MPI-processes   *
           *              working on a common directory               *
           ************************************************************
-------------------------------------------------------------------------------
                                 ORCA GUESS
                   Start orbitals & Density for SCF / CASSCF
-------------------------------------------------------------------------------

------------
SCF SETTINGS
------------
Hamiltonian:
 Density Functional     Method          .... DFT(GTOs)
 Exchange Functional    Exchange        .... PBE
   PBE kappa parameter   XKappa         ....  0.804000
   PBE mue parameter    XMuePBE         ....  0.219520
 Correlation Functional Correlation     .... P86
 LDA part of GGA corr.  LDAOpt          .... VWN-5
 Gradients option       PostSCFGGA      .... off
 Hybrid DFT is turned on
   Fraction HF Exchange ScalHFX         ....  0.690000
   Scaling of DF-GGA-X  ScalDFX         ....  0.310000
   Scaling of DF-GGA-C  ScalDFC         ....  0.403800
   Scaling of DF-LDA-C  ScalLDAC        ....  0.403800
   Perturbative correction              ....  1.000000
 RI-approximation to the Coulomb term is turned on
   Number of AuxJK basis functions      .... 2816
   RI-JK (J+K treated both via RI)      .... on


General Settings:
 Integral files         IntName         .... compas3x_hc_c16h10_0pent_1_qz_riri
 Hartree-Fock type      HFTyp           .... RHF
 Total Charge           Charge          ....    0
 Multiplicity           Mult            ....    1
 Number of Electrons    NEL             ....  106
 Basis Dimension        Dim             .... 1212
 Nuclear Repulsion      ENuc            ....    972.5705755621 Eh

Convergence Acceleration:
 AO-DIIS                CNVDIIS         .... on
   Start iteration      DIISMaxIt       ....    12
   Startup error        DIISStart       ....  0.200000
   # of expansion vecs  DIISMaxEq       ....     5
   Bias factor          DIISBfac        ....   1.050
   Max. coefficient     DIISMaxC        ....  10.000
 MO-DIIS                CNVKDIIS        .... off
 Trust-Rad. Augm. Hess. CNVTRAH         .... auto
   Auto Start mean grad. ratio tolernc. ....  1.125000
   Auto Start start iteration           ....    50
   Auto Start num. interpolation iter.  ....    10
   Max. Number of Micro iterations      ....    24
   Max. Number of Macro iterations      .... Maxiter - #DIIS iter
   Number of Davidson start vectors     ....     2
   Converg. threshold    (grad. norm)   ....   5.000e-05
   Grad. Scal. Fac. for Micro threshold ....   0.100
   Minimum threshold for Micro iter.    ....   1.000e-02
   NR start threshold (gradient norm)   ....   1.000e-04
   Initial trust radius                 ....   0.400
   Minimum AH scaling param. (alpha)    ....   1.000
   Maximum AH scaling param. (alpha)    .... 1000.000
   Quad. conv. algorithm                .... NR
   White noise on init. David. guess    .... on
   Maximum white noise                  ....   0.010
   Pseudo random numbers                .... off
   Inactive MOs                         .... canonical
   Orbital update algorithm             .... Taylor
   Preconditioner                       .... Diag
   Full preconditioner red. dimension   ....   250
 SOSCF                  CNVSOSCF        .... on
   Start iteration      SOSCFMaxIt      ....   150
   Startup grad/error   SOSCFStart      ....  0.003300
   Hessian update       SOSCFHessUp     .... L-BFGS
 Level Shifting         CNVShift        .... on
   Level shift para.    LevelShift      ....    0.2500
   Turn off err/grad.   ShiftErr        ....    0.0010
 Zerner damping         CNVZerner       .... off
 Static damping         CNVDamp         .... on
   Fraction old density DampFac         ....    0.7000
   Max. Damping (<1)    DampMax         ....    0.9800
   Min. Damping (>=0)   DampMin         ....    0.0000
   Turn off err/grad.   DampErr         ....    0.1000

SCF Procedure:
 Maximum # iterations   MaxIter         ....   125
 SCF integral mode      SCFMode         .... Direct
   Integral package                     .... SHARK and LIBINT hybrid scheme
 Reset frequency        DirectResetFreq ....    20
 Integral Threshold     Thresh          ....  1.000e-10 Eh
 Primitive CutOff       TCut            ....  1.000e-11 Eh

Convergence Tolerance:
 Convergence Check Mode ConvCheckMode   .... Total+1el-Energy
 Convergence forced     ConvForced      .... 0
 Energy Change          TolE            ....  1.000e-06 Eh
 1-El. energy change                    ....  1.000e-03 Eh
 Orbital Gradient       TolG            ....  5.000e-05
 Orbital Rotation angle TolX            ....  5.000e-05
 DIIS Error             TolErr          ....  1.000e-06

------------------------------
INITIAL GUESS: MODEL POTENTIAL
------------------------------
Loading Hartree-Fock densities                     ... done
Calculating cut-offs                               ... done
Initializing the effective Hamiltonian             ... done
Setting up the integral package (SHARK)            ... done
Starting the Coulomb interaction                   ... done (   0.2 sec)
Making the grid                                    ... done (   0.2 sec)
Mapping shells                                     ... done
Starting the XC term evaluation                    ... done (   0.1 sec)
  promolecular density results
     # of electrons  =    105.989068166
     EX              =    -84.879584154
     EC              =      0.142728550
     EX+EC           =    -84.736855604
Transforming the Hamiltonian                       ... done (   0.2 sec)
Diagonalizing the Hamiltonian                      ... done (   0.3 sec)
Back transforming the eigenvectors                 ... done (   0.1 sec)
Now organizing SCF variables                       ... done
                      ------------------
                      INITIAL GUESS DONE (   1.3 sec)
                      ------------------
             **** ENERGY FILE WAS UPDATED (compas3x_hc_c16h10_0pent_1_qz_riri.en.tmp) ****
Finished Guess after  16.4 sec
Maximum memory used throughout the entire GUESS-calculation: 108.4 MB


           ************************************************************
           *        Program running with 104 parallel MPI-processes   *
           *              working on a common directory               *
           ************************************************************

-------------------------------------------------------------------------------------------
                                      ORCA LEAN-SCF
                              memory conserving SCF solver
-------------------------------------------------------------------------------------------

----------------------------------------D-I-I-S--------------------------------------------
Iteration    Energy (Eh)           Delta-E    RMSDP     MaxDP     DIISErr   Damp  Time(sec)
-------------------------------------------------------------------------------------------
    1    -613.0843339832711081     0.00e+00  2.82e-04  2.27e-02  1.50e-01  0.700   6.2
    2    -612.9575743208206404     1.27e-01  2.54e-04  1.74e-02  1.34e-01  0.700   6.9
                               ***Turning on AO-DIIS***
    3    -613.0327796981343909    -7.52e-02  1.87e-04  1.40e-02  7.94e-02  0.700   6.4
    4    -613.1860939439006870    -1.53e-01  3.63e-04  3.38e-02  4.08e-02  0.000   6.4
    5    -613.4274314838946793    -2.41e-01  1.00e-04  7.40e-03  3.42e-02  0.000   6.3
    6    -613.4378724060784407    -1.04e-02  5.94e-05  4.70e-03  1.56e-02  0.000   6.1
    7    -613.4404704997305089    -2.60e-03  2.27e-05  1.77e-03  5.08e-03  0.000   6.4
                              *** Initializing SOSCF ***
---------------------------------------S-O-S-C-F--------------------------------------
Iteration    Energy (Eh)           Delta-E    RMSDP     MaxDP     MaxGrad    Time(sec)
--------------------------------------------------------------------------------------
    8    -613.4407621950165321    -2.92e-04  7.93e-06  4.92e-04  9.02e-04     6.7
    9    -613.4407833856062098    -2.12e-05  5.69e-06  3.73e-04  3.02e-04     5.9
   10    -613.4407859543080122    -2.57e-06  3.50e-06  2.14e-04  1.36e-04     6.0
   11    -613.4407864942033939    -5.40e-07  1.39e-06  8.53e-05  5.43e-05     5.2
                 **** Energy Check signals convergence ****

               *****************************************************
               *                     SUCCESS                       *
               *           SCF CONVERGED AFTER  11 CYCLES          *
               *****************************************************

             **** ENERGY FILE WAS UPDATED (compas3x_hc_c16h10_0pent_1_qz_riri.en.tmp) ****

----------------
TOTAL SCF ENERGY
----------------

Total Energy       :       -613.44078649420339 Eh          -16692.57243 eV

Components:
Nuclear Repulsion  :        972.57057556212885 Eh           26464.99082 eV
Electronic Energy  :      -1586.01136205633225 Eh          -43157.56325 eV
One Electron Energy:      -2759.31543230916077 Eh          -75084.79015 eV
Two Electron Energy:       1173.30407025282852 Eh           31927.22690 eV

Virial components:
Potential Energy   :      -1225.52659847030532 Eh          -33348.27414 eV
Kinetic Energy     :        612.08581197610192 Eh           16655.70170 eV
Virial Ratio       :          2.00221370025508

DFT components:
N(Alpha)           :       52.999998337090 electrons
N(Beta)            :       52.999998337090 electrons
N(Total)           :      105.999996674179 electrons
E(X)               :      -26.776399876737 Eh       
E(C)               :       -1.573885009139 Eh       
E(XC)              :      -28.350284885876 Eh       

---------------
SCF CONVERGENCE
---------------

  Last Energy change         ...    5.3990e-07  Tolerance :   1.0000e-06
  Last MAX-Density change    ...    8.5262e-05  Tolerance :   1.0000e-05
  Last RMS-Density change    ...    1.3876e-06  Tolerance :   1.0000e-06
  Last DIIS Error            ...    9.0168e-04  Tolerance :   1.0000e-06
  Last Orbital Gradient      ...    5.4327e-05  Tolerance :   5.0000e-05
  Last Orbital Rotation      ...    1.1497e-04  Tolerance :   5.0000e-05


----------------
ORBITAL ENERGIES
----------------

  NO   OCC          E(Eh)            E(eV) 
   0   2.0000     -10.831004      -294.7266 
   1   2.0000     -10.830930      -294.7246 
   2   2.0000     -10.830771      -294.7203 
   3   2.0000     -10.830764      -294.7201 
   4   2.0000     -10.829277      -294.6796 
   5   2.0000     -10.828489      -294.6582 
   6   2.0000     -10.824039      -294.5371 
   7   2.0000     -10.824038      -294.5370 
   8   2.0000     -10.822779      -294.5028 
   9   2.0000     -10.822779      -294.5028 
  10   2.0000     -10.822450      -294.4938 
  11   2.0000     -10.822449      -294.4938 
  12   2.0000     -10.821605      -294.4708 
  13   2.0000     -10.821604      -294.4708 
  14   2.0000     -10.820958      -294.4532 
  15   2.0000     -10.820958      -294.4532 
  16   2.0000      -1.091920       -29.7127 
  17   2.0000      -1.042493       -28.3677 
  18   2.0000      -1.018700       -27.7202 
  19   2.0000      -0.978721       -26.6323 
  20   2.0000      -0.942777       -25.6543 
  21   2.0000      -0.920970       -25.0609 
  22   2.0000      -0.900270       -24.4976 
  23   2.0000      -0.875143       -23.8139 
  24   2.0000      -0.776413       -21.1273 
  25   2.0000      -0.775401       -21.0997 
  26   2.0000      -0.769028       -20.9263 
  27   2.0000      -0.750740       -20.4287 
  28   2.0000      -0.676091       -18.3974 
  29   2.0000      -0.648079       -17.6351 
  30   2.0000      -0.642314       -17.4783 
  31   2.0000      -0.625726       -17.0269 
  32   2.0000      -0.610596       -16.6152 
  33   2.0000      -0.585279       -15.9263 
  34   2.0000      -0.551553       -15.0085 
  35   2.0000      -0.544372       -14.8131 
  36   2.0000      -0.542890       -14.7728 
  37   2.0000      -0.523972       -14.2580 
  38   2.0000      -0.513981       -13.9861 
  39   2.0000      -0.503619       -13.7042 
  40   2.0000      -0.501365       -13.6428 
  41   2.0000      -0.491940       -13.3864 
  42   2.0000      -0.464792       -12.6476 
  43   2.0000      -0.464058       -12.6277 
  44   2.0000      -0.453841       -12.3496 
  45   2.0000      -0.427924       -11.6444 
  46   2.0000      -0.422007       -11.4834 
  47   2.0000      -0.410376       -11.1669 
  48   2.0000      -0.372788       -10.1441 
  49   2.0000      -0.337961        -9.1964 
  50   2.0000      -0.318612        -8.6699 
  51   2.0000      -0.280343        -7.6285 
  52   2.0000      -0.242221        -6.5912 
  53   0.0000       0.005340         0.1453 
  54   0.0000       0.038221         1.0400 
  55   0.0000       0.062325         1.6960 
  56   0.0000       0.076506         2.0818 
  57   0.0000       0.081614         2.2208 
  58   0.0000       0.083180         2.2634 
  59   0.0000       0.085953         2.3389 
  60   0.0000       0.101019         2.7489 
  61   0.0000       0.103929         2.8280 
  62   0.0000       0.122872         3.3435 
  63   0.0000       0.125986         3.4283 
*Only the first 10 virtual orbitals were printed.
-------
TIMINGS
-------

Total SCF time: 0 days 0 hours 1 min 24 sec 

Total time                  ....      84.420 sec
Sum of individual times     ....      84.259 sec  ( 99.8%)

SCF preparation             ....      14.710 sec  ( 17.4%)
Fock matrix formation       ....      55.695 sec  ( 66.0%)
  Startup                   ....       1.379 sec  (  2.5% of F)
  RI-JK                     ....      45.001 sec  ( 80.8% of F)
  XC integration            ....       6.463 sec  ( 11.6% of F)
    XC Preparation          ....       0.000 sec  (  0.0% of XC)
    Basis function eval.    ....       0.506 sec  (  7.8% of XC)
    Density eval.           ....       0.824 sec  ( 12.8% of XC)
    XC-Functional eval.     ....       0.022 sec  (  0.3% of XC)
    XC-Potential eval.      ....       1.456 sec  ( 22.5% of XC)
Diagonalization             ....       0.000 sec  (  0.0%)
Density matrix formation    ....       2.085 sec  (  2.5%)
Total Energy calculation    ....       1.255 sec  (  1.5%)
Population analysis         ....       0.000 sec  (  0.0%)
Orbital Transformation      ....       1.258 sec  (  1.5%)
Orbital Orthonormalization  ....       0.000 sec  (  0.0%)
DIIS solution               ....       7.458 sec  (  8.8%)
SOSCF solution              ....       1.715 sec  (  2.0%)
Finished LeanSCF after  84.8 sec

Maximum memory used throughout the entire LEANSCF-calculation: 280.1 MB


           ************************************************************
           *        Program running with 104 parallel MPI-processes   *
           *              working on a common directory               *
           ************************************************************

------------------------------------------------------------------------------
                                ORCA  MP2 
------------------------------------------------------------------------------


-------------
RI-MP2 ENERGY
-------------
Dimension of the orbital basis            ... 1212
Dimension of the AuxC basis               ... 2816
Memory devoted to MP2                     ... 4096 MB   
Data format for matrix containers         ... DOUBLE
Compression type for matrix containers    ... UNCOMPRESSED
Scaling for aa/bb pairs                   ...   5.710e-02
Scaling for ab pairs                      ...   5.979e-01
Overall scaling of the MP2 energy         ...   1.000e+00

-----------------------
SHARK RI TRANSFORMATION
-----------------------

Number of basis functions                ...   1212
Number of aux functions                  ...   2816
Number of operators                      ...      1
Generation of IJK                        ... NO
Generation of IAK                        ... YES
Generation of ABK                        ... NO
Orbital Range Operator  0:    0-  52 to   53-1211

Aux basis identifier                     ...   AUXC
Contraction scheme used                  ... SEGMENTED
Do orthogonalization                     ... YES
All operator combinations                ... NO
Transpose (ia|K)                         ... NO
Integral generator used                  ... LIBINT
Starting integral generation + trafo... 
Half trafo (segmented) done. Total time =  1.7 sec. integrals=  0.6 sec trafo=  0.9 sec
Integral generation and half transformation done (  1.7 sec)

Reading or making V^(-1/2)          ... done (  0.2 sec)
Sorting IAK integrals               ... done (  1.5 sec)

SHARK RI integral transformation done. Total time =  3.5 sec.

Opening buffers                              ... done

Starting loop over batches of integrals:

Operator 0  - window                       ... (  0- 52)x( 53-1211)
Operator 0  - Memory available             ...  4096 MB
Operator 0  - Memory needed per MO         ...  24.9 MB
Operator 0  - Number of orbitals per batch ... 1
Operator 0  - Number of batches            ... 1

OPERATOR  0   PASS   0:  MOs     0 ...    0 +    1 ...    1 +    2 ...    2 +    3 ...    3
                            +    4 ...    4 +    5 ...    5 +    6 ...    6 +    7 ...    7
                            +    8 ...    8 +    9 ...    9 +   10 ...   10 +   11 ...   11
                            +   12 ...   12 +   13 ...   13 +   14 ...   14 +   15 ...   15
                            +   16 ...   16 +   17 ...   17 +   18 ...   18 +   19 ...   19
                            +   20 ...   20 +   21 ...   21 +   22 ...   22 +   23 ...   23
                            +   24 ...   24 +   25 ...   25 +   26 ...   26 +   27 ...   27
                            +   28 ...   28 +   29 ...   29 +   30 ...   30 +   31 ...   31
                            +   32 ...   32 +   33 ...   33 +   34 ...   34 +   35 ...   35
                            +   36 ...   36 +   37 ...   37 +   38 ...   38 +   39 ...   39
                            +   40 ...   40 +   41 ...   41 +   42 ...   42 +   43 ...   43
                            +   44 ...   44 +   45 ...   45 +   46 ...   46 +   47 ...   47
                            +   48 ...   48 +   49 ...   49 +   50 ...   50 +   51 ...   51
                            +   52 ...   52
  Reading integrals       ... ok
Time spent in pair loops =     9.464 sec

-----------------------------------------------
 RI-MP2 CORRELATION ENERGY:     -1.579136477 Eh
-----------------------------------------------


-------
TIMINGS
-------

Total time                :   14.564 sec
Integral trafo            :    3.567 sec ( 24.5%)
I/O of integrals          :    0.020 sec (  0.1%)
K(i,j) operators          :    0.146 sec (  1.0%)
T(i,j) pair energies      :    0.030 sec (  0.2%)
V**(-1/2)                 :    1.528 sec ( 10.5%)


---------------------------------------
MP2 TOTAL ENERGY:     -615.019922971 Eh
---------------------------------------

Maximum memory used throughout the entire MP2-calculation: 203.5 MB


-------------------------------------------------------------------------------
                          DFT DISPERSION CORRECTION                            
                                                                               
                                DFTD4 V3.4.0                                   
-------------------------------------------------------------------------------
The REV-DSD-PBEP86-2021 functional is recognized
A user input s6-coefficient scaling factor has been recognized
A user input a1-coefficient scaling factor has been recognized
A user input s8-coefficient scaling factor has been recognized
A user input a2-coefficient scaling factor has been recognized
A user input s9-coefficient scaling factor has been recognized
Active option DFTDOPT                   ...         5   

-------------------------   ----------------
Dispersion correction           -0.024005243
-------------------------   ----------------


-------------------------   --------------------
FINAL SINGLE POINT ENERGY      -615.043928213996
-------------------------   --------------------



           ************************************************************
           *        Program running with 104 parallel MPI-processes   *
           *              working on a common directory               *
           ************************************************************

------------------------------------------------------------------------------
                              ORCA PROPERTY CALCULATIONS
------------------------------------------------------------------------------

GBWName                                 ... compas3x_hc_c16h10_0pent_1_qz_riri.gbw
Number of atoms                         ...     26
Number of basis functions               ...   1212
Max core memory                         ...   1024 MB

Electric properties:
Dipole moment                           ... YES
Quadrupole moment                       ...  NO
Static polarizability (Dipole/Dipole)   ...  NO
Static polarizability (Dipole/Quad.)    ...  NO
Static polarizability (Quad./Quad.)     ...  NO
Static polarizability (Velocity)        ...  NO

Atomic electric properties:
Dipole moment                           ...  NO
Quadrupole moment                       ...  NO
Static polarizability                   ...  NO

Choice of electric origin               ... Center of mass
Position of electric origin             ...     0.000145     0.000000     0.000130

General magnetic properties:
Magnetizability                         ...  NO

EPR properties:
g-Tensor (aka g-matrix)                 ...  NO
Zero-Field splitting spin-orbit         ...  NO
Zero-field splitting spin-spin          ...  NO
Hyperfine couplings                     ...  NO (   0 nuclei)
Quadrupole couplings                    ...  NO (   0 nuclei)
Contact density                         ...  NO (   0 nuclei)

NMR properties:
Chemical shifts                         ...  NO (   0 nuclei)
Spin-rotation constants                 ...  NO (   0 nuclei)
Spin-spin couplings                     ...  NO (   0 nuclei,    0 pairs)

Choice of magnetic origin               ... GIAO
Position of magnetic origin             ...     0.000000     0.000000     0.000000

Properties with geometric perturbations:
SCF Hessian                             ...  NO
IR spectrum                             ...  NO
VCD spectrum                            ...  NO
X-ray spectroscopy properties:
SCF XES/XAS/RIXS spectra                ...  NO


-------------
DIPOLE MOMENT
-------------

Method             : SCF
Type of density    : Electron Density
Multiplicity       :   1
Irrep              :   0
Energy             :  -613.4407864942033939 Eh
Relativity type    : 
Basis              : AO
                                X                 Y                 Z
Electronic contribution:      0.000000074       0.000000409      -0.000188071
Nuclear contribution   :     -0.000000194      -0.000000559       0.000210329
                        -----------------------------------------
Total Dipole Moment    :     -0.000000119      -0.000000150       0.000022258
                        -----------------------------------------
Magnitude (a.u.)       :      0.000022259
Magnitude (Debye)      :      0.000056577



--------------------
Rotational spectrum 
--------------------
 
Rotational constants in cm-1:             0.034185             0.018767             0.012116 
Rotational constants in MHz :          1024.849881           562.633112           363.225610 

Dipole components along the rotational axes: 
x,y,z [a.u.] :    -0.000000    -0.000000     0.000022 
x,y,z [Debye]:    -0.000000    -0.000000     0.000057 

 

Dipole moment calculation done in   0.2 sec 

Maximum memory used throughout the entire PROP-calculation: 116.4 MB

--------------------------------
SUGGESTED CITATIONS FOR THIS RUN
--------------------------------

Below you find a list of papers that are relevant to this ORCA run
We neither can nor want to force you to cite these papers, but we appreciate if you do
You receive ORCA, which is the product of decades of hard work by many enthusiastic individuals, for free
The only thing we kindly ask in return is that you cite our papers,
We deeply appreciate it, if you show your appreciation for ORCA by not just citing the generic ORCA reference.

Please note that relegating all ORCA citations to the supporting information does *not* help us.
SI sections are not indexed - citations you put there will not count into any citation statistics
But we need these citations in order to attract the funding resources that allow us to do what we are doing

Therefore, if you are a happy ORCA user, please consider citing a few of the papers listed below in the main body of your paper

In addition to the list printed below, the program has created the file compas3x_hc_c16h10_0pent_1_qz_riri.bibtex that contains the list in bibtex format
You can import this file easily into all common literature databanks and citation aid programs


List of essential papers. We consider these as the minimum necessary citations

  1. Neese,F.
     Software update: the ORCA program system, version 5.0
     WIRES Comput. Molec. Sci., 2022 12(1)e1606
     doi.org/10.1002/wcms.1606

List of papers to cite with high priority. The work reported in these papers was absolutely
necessary for this run to complete.
Our perspective: the developers of density functionals and basis sets usually get cited in chemistry papers
Good! But without the algorithms to do something with them, the functionals or basis sets would not do anything.
Hence, in our opinion, the algorithm design and method developments papers are equally worthy of getting cited

  1. Neese,F.
     An improvement of the resolution of the identity approximation for the formation of the Coulomb matrix
     J. Comp. Chem., 2003 24(14)1740-1747
     doi.org/10.1002/jcc.10318
  2. Kossmann,S.; Neese,F.
     Comparison of two efficient approximate Hartee-Fock approaches
     Chem. Phys. Lett., 2009 481 240-243
     doi.org/10.1016/j.cplett.2009.09.073
  3. Neese,F.
     The SHARK Integral Generation and Digestion System
     J. Comp. Chem., 2022  1-16
     doi.org/10.1002/jcc.26942
  4. Caldeweyher,E.; Bannwarth,C.; Grimme,S.
     Extension of the D3 dispersion coefficient model
     J. Chem. Phys., 2017 147 034112
     doi.org/10.1063/1.4993215
  5. Caldeweyher,E.; Ehlert,S.; Hansen,A.; Neugebauer,H.; Spicher,S.; Bannwarth,C.; Grimme,S.
     A generally applicable atomic-charge dependent London dispersion correction
     J. Chem. Phys., 2019 150 154122
     doi.org/10.1063/1.5090222
  6. Caldeweyher,E.; Mewes,J.; Ehlert,S.; Grimme,S.
     Extension and evaluation of the D4 London-dispersion model for periodic systems
     Phys. Chem. Chem. Phys., 2020 22(16)8499-8512
     doi.org/10.1039/D0CP00502A
  7. Wittmann,L.; Gordiy,I.; Friede,M.; Helmich-Paris,B.; Grimme,S.; Hansen,A.; Bursch,M.
     Extension of the D3 and D4 London Dispersion Corrections to the full Actinides Series
     Phys. Chem. Chem. Phys., 2024 26(32)21379-21394
     doi.org/https://doi.org/10.1039/D4CP01514B 

List of suggested additional citations. These are papers that are important in the 'surrounding' of 
of this run, or papers that preceded the highly important papers. If you like your results we are grateful for a citation.

  1. Neese,F.
     The ORCA program system
     WIRES Comput. Molec. Sci., 2012 2(1)73-78
     doi.org/10.1002/wcms.81
  2. Neese,F.
     Software update: the ORCA program system, version 4.0
     WIRES Comput. Molec. Sci., 2018 8(1)1-6
     doi.org/10.1002/wcms.1327
  3. Neese,F.; Wennmohs,F.; Becker,U.; Riplinger,C.
     The ORCA quantum chemistry program package
     J. Chem. Phys., 2020 152 Art. No. L224108
     doi.org/10.1063/5.0004608

List of optional additional citations

  1. Neese,F.
     Approximate second-order SCF convergence for spin unrestricted wavefunctions
     Chem. Phys. Lett., 2000 325(1-3)93-98
     doi.org/10.1016/s0009-2614(00)00662-x

Timings for individual modules:

Sum of individual times          ...      173.324 sec (=   2.889 min)
Startup calculation              ...       22.732 sec (=   0.379 min)  13.1 %
SCF iterations                   ...      103.845 sec (=   1.731 min)  59.9 %
Property calculations            ...       15.984 sec (=   0.266 min)   9.2 %
MP2 module                       ...       30.762 sec (=   0.513 min)  17.7 %
                             ****ORCA TERMINATED NORMALLY****
TOTAL RUN TIME: 0 days 0 hours 3 minutes 19 seconds 581 msec
