
                                 *****************
                                 * O   R   C   A *
                                 *****************

                                            #,                                       
                                            ###                                      
                                            ####                                     
                                            #####                                    
                                            ######                                   
                                           ########,                                 
                                     ,,################,,,,,                         
                               ,,#################################,,                 
                          ,,##########################################,,             
                       ,#########################################, ''#####,          
                    ,#############################################,,   '####,        
                  ,##################################################,,,,####,       
                ,###########''''           ''''###############################       
              ,#####''   ,,,,##########,,,,          '''####'''          '####       
            ,##' ,,,,###########################,,,                        '##       
           ' ,,###''''                  '''############,,,                           
         ,,##''                                '''############,,,,        ,,,,,,###''
      ,#''                                            '''#######################'''  
     '                                                          ''''####''''         
             ,#######,   #######,   ,#######,      ##                                
            ,#'     '#,  ##    ##  ,#'     '#,    #''#        ,####,   ,####,        
            ##       ##  ##   ,#'  ##            #'  '#       #'       #'  '#        
            ##       ##  #######   ##           ,######,      #####,   #    #        
            '#,     ,#'  ##    ##  '#,     ,#' ,#      #,     #,   #   #,  ,#        
             '#######'   ##     ##  '#######'  #'      '#     '####' # '####'        



                #########################################################
                #                        -***-                          #
                #          Department of theory and spectroscopy        #
                #                                                       #
                #                      Frank Neese                      #
                #                                                       #
                #     Directorship, Architecture, Infrastructure        #
                #                    SHARK, DRIVERS                     #
                #        Core code/Algorithms in most modules           #
                #                                                       #
                #        Max Planck Institute fuer Kohlenforschung      #
                #                Kaiser Wilhelm Platz 1                 #
                #                 D-45470 Muelheim/Ruhr                 #
                #                      Germany                          #
                #                                                       #
                #                  All rights reserved                  #
                #                        -***-                          #
                #########################################################


                         Program Version 6.0.1  -  RELEASE   -


 With contributions from (in alphabetic order):
[Max-Planck-Institut fuer Kohlenforschung]                               
  Daniel Aravena         : Magnetic Suceptibility                        
  Michael Atanasov       : Ab Initio Ligand Field Theory (pilot matlab implementation)
  Alexander A. Auer      : GIAO ZORA, VPT2 properties, NMR spectrum      
  Ute Becker             : All parallelization in ORCA, NUMFREQ, NUMCALC 
  Giovanni Bistoni       : ED, misc. LED, open-shell LED, HFLD           
  Martin Brehm           : Molecular dynamics                            
  Dmytro Bykov           : pre 5.0 version of the SCF Hessian            
  Marcos Casanova-Páez   : Triplet and SCS-CIS(D). UHF-(DLPNO)-IP/EA/STEOM-CCSD. UHF-CVS-IP/STEOM-CCSD   
  Vijay G. Chilkuri      : MRCI spin determinant printing, contributions to CSF-ICE 
  Pauline Colinet        : FMM embedding                                 
  Dipayan Datta          : RHF DLPNO-CCSD density                        
  Achintya Kumar Dutta   : EOM-CC, STEOM-CC                              
  Nicolas Foglia         : Exact transition moments, OPA infrastructure, MCD improvements    
  Dmitry Ganyushin       : Spin-Orbit,Spin-Spin,Magnetic field MRCI      
  Miquel Garcia-Rates    : C-PCM and meta-GGA Hessian, CCSD/C-PCM, Gaussian charge scheme 
  Tiago L. C. Gouveia    : GS-ROHF, GS-ROCIS                             
  Yang Guo               : DLPNO-NEVPT2, F12-NEVPT2, CIM, IAO-localization        
  Andreas Hansen         : Spin unrestricted coupled pair/coupled cluster methods 
  Ingolf Harden          : AUTO-CI MPn and infrastructure                
  Benjamin Helmich-Paris : MC-RPA, TRAH-(SCF,CASSCF), AVAS, COSX integrals, SCF dyn. polar. 
  Lee Huntington         : MR-EOM, pCC                                   
  Robert Izsak           : Overlap fitted RIJCOSX, COSX-SCS-MP3, EOM     
  Riya Kayal             : Wick's Theorem for AUTO-CI, AUTO-CI UHF-CCSDT 
  Emily Kempfer          : AUTO-CI, RHF CISDT and CCSDT                  
  Christian Kollmar      : KDIIS, OOCD, Brueckner-CCSD(T), CCSD density, CASPT2, CASPT2-K, improved NEVPT2 
  Axel Koslowski         : Symmetry handling                             
  Simone Kossmann        : meta-GGA functionals, TD-DFT gradient, OOMP2, (MP2 Hessian; deprecated post 5.0) 
  Lucas Lang             : DCDCAS                                        
  Marvin Lechner         : AUTO-CI (C++ implementation), FIC-MRCC        
  Spencer Leger          : CASSCF response                               
  Dagmar Lenk            : GEPOL surface, SMD, ORCA-2-JSON               
  Dimitrios Liakos       : Extrapolation schemes; Compound Job, initial MDCI parallelization 
  Dimitrios Manganas     : Further ROCIS development; embedding schemes. LFT, Crystal Embedding 
  Dimitrios Pantazis     : SARC Basis sets                               
  Anastasios Papadopoulos: AUTO-CI, single reference methods and gradients 
  Taras Petrenko         : pre 6.0 DFT Hessian and TD-DFT gradient, (ASA, deprecated), ECA, 1-Electron XAS/XES, NRVS 
  Peter Pinski           : DLPNO-MP2, DLPNO-MP2 Gradient                 
  Christoph Reimann      : Effective Core Potentials                     
  Marius Retegan         : Local ZFS, SOC                                
  Christoph Riplinger    : Optimizer, TS searches, QM/MM, DLPNO-CCSD(T), (RO)-DLPNO pert. Triples 
  Michael Roemelt        : Original ROCIS implementation                 
  Masaaki Saitow         : Open-shell DLPNO-CCSD energy and density      
  Barbara Sandhoefer     : DKH picture change effects                    
  Kantharuban Sivalingam : CASSCF convergence/infrastructure, NEVPT2 and variants, FIC-MRCI 
  Bernardo de Souza      : ESD, SOC TD-DFT                               
  Georgi L. Stoychev     : AutoAux, RI-MP2 NMR, DLPNO-MP2 response, X2C  
  Van Anh Tran           : RI-MP2 g-tensors                              
  Willem Van den Heuvel  : Paramagnetic NMR                              
  Zikuan Wang            : NOTCH, Electric field optimization            
  Frank Wennmohs         : Technical directorship and infrastructure     
  Hang Xu                : AUTO-CI-Response properties                   
                                                                         
[FACCTs GmbH]                                                            
  Markus Bursch, Miquel Garcia-Rates, Christoph Riplinger, Bernardo de Souza, Georgi L. Stoychev 
                                                                 
  APM, Basis sets (HGBS, AHGBS, def-TZVP (Ac-Lr), def2-XVPD (La-Lu)), CI-OPT, improved COSX, DLPNO-Multilevel,           
  DOCKER, DRACO, updates on ESD, GOAT, IRC, LR-CPCM, MBIS, meta-GGA TD-DFT gradient, ML-optimized integration grids, 
  MM, NACMEs, nearIR, NEB, NEB-TS, NL-DFT gradient (VV10), 2- and 3-layer-ONIOM, interface openCOSMO-RS, QMMM,   
  Crystal-QMMM, SF, symmetry and pop. for TD-DFT, r2SCAN hybrids, SOLVATOR                                   
                                                                         
[Other institutions]                                                     
  V. Asgeirsson          : NEB                                           
  Christoph Bannwarth    : sTDA-DFT, sTD-DFT, PBEh-3c, B97-3c, D3        
  Sebastian Ehlert       : rSCAN, r2SCAN, r2SCAN-3c, D4, dhf basis sets  
  Marvin Friede          : D4 for Fr, Ra, Ac-Lr                          
  Lars Goerigk           : TD-DFT with DH, B97 family of functionals     
  Stefan Grimme          : VdW corrections, initial TS optimization, DFT functionals, gCP, sTDA/sTD-DF 
  Waldemar Hujo          : DFT-NL                                        
  H. Jonsson             : NEB                                           
  Holger Kruse           : gCP                                           
  Marcel Mueller         : wB97X-3c, vDZP basis set                      
  Hagen Neugebauer       : wr2SCAN                                       
  Tobias Risthaus        : range-separated hybrid DFT                    
  Lukas Wittmann         : regularized MP2, r2SCAN double-hybrids, wr2SCAN        
                                                                         
We gratefully acknowledge several colleagues who have allowed us to      
interface, adapt or use parts of their codes:                            
  Ed Valeev, F. Pavosevic, A. Kumar             : LibInt (2-el integral package), F12 methods 
  Garnet Chan, S. Sharma, J. Yang, R. Olivares  : DMRG                   
  Ulf Ekstrom                                   : XCFun DFT Library      
  Mihaly Kallay                                 : mrcc  (arbitrary order and MRCC methods)
  Frank Weinhold                                : gennbo (NPA and NBO analysis)           
  Simon Mueller                                 : openCOSMO-RS                            
  Christopher J. Cramer and Donald G. Truhlar   : smd solvation model                     
  S Lehtola, MJT Oliveira, MAL Marques          : LibXC Library                           
  Liviu Ungur et al                             : ANISO software                          


 Your calculation uses the libint2 library for the computation of 2-el integrals
 For citations please refer to: http://libint.valeyev.net

 Your ORCA version has been built with support for libXC version: 6.2.2
 For citations please refer to: https://libxc.gitlab.io

 This ORCA versions uses:
   CBLAS   interface :  Fast vector & matrix operations
   LAPACKE interface :  Fast linear algebra routines
   SCALAPACK package :  Parallel linear algebra routines
   Shared memory     :  Shared parallel matrices
   BLAS/LAPACK       :  OpenBLAS 0.3.27  USE64BITINT DYNAMIC_ARCH NO_AFFINITY SapphireRapids SINGLE_THREADED
        Core in use  :  SapphireRapids
   Copyright (c) 2011-2014, The OpenBLAS Project




***************************************
The coordinates will be read from file: /scratch/kx58/rs2200/dhdft/inputs/compas3D-xyzs/hc_c24h14_0pent_2.xyz
***************************************


Your calculation utilizes the atom-pairwise dispersion correction
based on EEQ partial charges (D4)


================================================================================

----- Orbital basis set information -----
Your calculation utilizes the basis: def2-QZVPP
   F. Weigend and R. Ahlrichs, Phys. Chem. Chem. Phys. 7, 3297 (2005).

================================================================================
                                        WARNINGS
                       Please study these warnings very carefully!
================================================================================


WARNING: No MP2 level density has been requested!
         To calculate MP2 level properties use
         %mp2 Density relaxed end
         or
         %mp2 Density unrelaxed end
         Otherwise for double-hybrid DFT only the energy is correct!

================================================================================
                                       INPUT FILE
================================================================================
NAME = compas3D_hc_c24h14_0pent_2_qz_nori.inp
|  1> ! RKS revDSD-PBEP86-D4/2021 defgrid3  NORI NOPOP NoFrozencore NoUseSym
|  2> 
|  3> %basis
|  4> Basis "def2-QZVPP"
|  5> 
|  6> 
|  7> end
|  8> 
|  9> %method
| 10> ScalHFX 0.69
| 11> ScalDFX 0.31
| 12> ScalDFC 0.4038
| 13> ScalLDAC 0.4038
| 14> 
| 15> D4S6 0.4612
| 16> D4S8 0.0
| 17> D4A1 0.44
| 18> D4A2 3.60
| 19> end
| 20> 
| 21> %mp2
| 22> PS 0.5979
| 23> PT 0.0571
| 24> MaxCore 45000
| 25> Q1Opt 1
| 26> 
| 27> end
| 28> 
| 29> %pal
| 30> nprocs 10
| 31> end
| 32> 
| 33> *XYZFILE 0 1 /scratch/kx58/rs2200/dhdft/inputs/compas3D-xyzs/hc_c24h14_0pent_2.xyz
| 34> 
| 35>                          ****END OF INPUT****
================================================================================

                       ****************************
                       * Single Point Calculation *
                       ****************************

---------------------------------
CARTESIAN COORDINATES (ANGSTROEM)
---------------------------------
  C      2.268688   -0.113118   -0.244302
  C      1.354066   -1.181930   -0.400392
  C     -0.063135   -0.962435   -0.240365
  C     -0.562223    0.310633    0.083677
  C      0.343310    1.456159   -0.046959
  C      1.741948    1.246843   -0.132388
  C      3.641587   -0.390187   -0.282391
  C      4.111606   -1.676184   -0.510440
  C      3.218749   -2.719608   -0.714142
  C      1.842216   -2.492461   -0.658431
  C      0.904740   -3.574757   -0.846025
  C     -0.422232   -3.375976   -0.722426
  C     -0.955626   -2.079947   -0.375245
  C     -2.305288   -1.902410   -0.162229
  C     -2.812298   -0.682071    0.323235
  C     -1.929676    0.424687    0.516220
  C     -0.134509    2.777195   -0.199561
  C      0.719670    3.856114   -0.300131
  C      2.102696    3.652171   -0.266469
  C      2.595351    2.365239   -0.206896
  C     -4.184842   -0.564792    0.681259
  C     -4.664236    0.563757    1.286286
  C     -3.772084    1.617472    1.593092
  C     -2.454484    1.548516    1.220602
  H      4.364524    0.410822   -0.137004
  H      5.186953   -1.862557   -0.536524
  H      3.583464   -3.730527   -0.908516
  H      1.301987   -4.564615   -1.080744
  H     -1.126208   -4.200263   -0.855561
  H     -2.989570   -2.741831   -0.305798
  H     -1.203686    2.950687   -0.285466
  H      0.312054    4.861232   -0.424586
  H      2.789212    4.498392   -0.332667
  H      3.672969    2.217447   -0.255182
  H     -4.843723   -1.414017    0.486721
  H     -5.716562    0.637891    1.567290
  H     -4.130039    2.485843    2.149788
  H     -1.785372    2.350585    1.520670

----------------------------
CARTESIAN COORDINATES (A.U.)
----------------------------
  NO LB      ZA    FRAG     MASS         X           Y           Z
   0 C     6.0000    0    12.011    4.287199   -0.213763   -0.461664
   1 C     6.0000    0    12.011    2.558815   -2.233523   -0.756632
   2 C     6.0000    0    12.011   -0.119308   -1.818739   -0.454224
   3 C     6.0000    0    12.011   -1.062448    0.587011    0.158126
   4 C     6.0000    0    12.011    0.648761    2.751742   -0.088740
   5 C     6.0000    0    12.011    3.291804    2.356192   -0.250176
   6 C     6.0000    0    12.011    6.881602   -0.737346   -0.533642
   7 C     6.0000    0    12.011    7.769810   -3.167528   -0.964591
   8 C     6.0000    0    12.011    6.082554   -5.139315   -1.349533
   9 C     6.0000    0    12.011    3.481284   -4.710069   -1.244253
  10 C     6.0000    0    12.011    1.709711   -6.755312   -1.598755
  11 C     6.0000    0    12.011   -0.797902   -6.379669   -1.365188
  12 C     6.0000    0    12.011   -1.805871   -3.930530   -0.709110
  13 C     6.0000    0    12.011   -4.356364   -3.595034   -0.306568
  14 C     6.0000    0    12.011   -5.314474   -1.288928    0.610826
  15 C     6.0000    0    12.011   -3.646559    0.802542    0.975514
  16 C     6.0000    0    12.011   -0.254184    5.248138   -0.377115
  17 C     6.0000    0    12.011    1.359980    7.287000   -0.567165
  18 C     6.0000    0    12.011    3.973520    6.901603   -0.503554
  19 C     6.0000    0    12.011    4.904503    4.469654   -0.390977
  20 C     6.0000    0    12.011   -7.908205   -1.067302    1.287393
  21 C     6.0000    0    12.011   -8.814129    1.065346    2.430728
  22 C     6.0000    0    12.011   -7.128205    3.056580    3.010509
  23 C     6.0000    0    12.011   -4.638302    2.926272    2.306603
  24 H     1.0000    0     1.008    8.247755    0.776342   -0.258900
  25 H     1.0000    0     1.008    9.801921   -3.519722   -1.013883
  26 H     1.0000    0     1.008    6.771766   -7.049675   -1.716846
  27 H     1.0000    0     1.008    2.460400   -8.625873   -2.042310
  28 H     1.0000    0     1.008   -2.128224   -7.937347   -1.616776
  29 H     1.0000    0     1.008   -5.649468   -5.181310   -0.577874
  30 H     1.0000    0     1.008   -2.274637    5.575991   -0.539453
  31 H     1.0000    0     1.008    0.589696    9.186396   -0.802352
  32 H     1.0000    0     1.008    5.270846    8.500729   -0.628650
  33 H     1.0000    0     1.008    6.940906    4.190367   -0.482224
  34 H     1.0000    0     1.008   -9.153309   -2.672105    0.919769
  35 H     1.0000    0     1.008  -10.802736    1.205440    2.961749
  36 H     1.0000    0     1.008   -7.804643    4.697562    4.062511
  37 H     1.0000    0     1.008   -3.373865    4.441962    2.873649

--------------------------------
INTERNAL COORDINATES (ANGSTROEM)
--------------------------------
 C      0   0   0     0.000000000000     0.00000000     0.00000000
 C      1   0   0     1.415363646090     0.00000000     0.00000000
 C      2   1   0     1.442999113618   120.50149506     0.00000000
 C      3   2   1     1.405274182674   120.80887917   359.46931910
 C      4   3   2     1.466044479336   117.90109272    13.73788056
 C      5   4   3     1.416791783242   119.97948016   343.02837244
 C      1   2   3     1.401096015811   118.74255397   174.04482490
 C      7   1   2     1.388060449177   121.29724982     2.03495754
 C      8   7   1     1.388316876866   120.17528097     0.35723615
 C      9   8   7     1.396260010384   120.39199288   358.39082894
 C     10   9   8     1.444097410440   120.85707968   181.06999730
 C     11  10   9     1.347458814517   121.11976708   176.40277053
 C      3   2   1     1.436511090886   118.77944083   181.48226964
 C     13   3   2     1.377854860959   119.59232793   176.88225845
 C     14  13   3     1.407821479633   121.18287625   353.17293983
 C     15  14  13     1.428698120341   119.70873419     4.22674802
 C      5   4   3     1.413057747188   122.08980064   157.85901605
 C     17   5   4     1.379783834898   121.97590823   178.90724582
 C     18  17   5     1.398387445926   119.76682098     0.71381517
 C     19  18  17     1.379293688633   119.36496303     3.54587254
 C     15  14  13     1.423309590027   120.36182882   187.18139063
 C     21  15  14     1.367296002150   121.15988048   172.95392160
 C     22  21  15     1.414348542978   119.32441512   358.29838506
 C     23  22  21     1.370975502977   120.65173731     3.80743801
 H      7   1   2     1.088756726470   120.10072102   181.70706248
 H      8   7   1     1.091689680154   119.71189282   179.89404898
 H      9   8   7     1.092133681110   120.46622710   179.09979764
 H     11  10   9     1.092115899711   118.10405636   357.06651768
 H     12  11  10     1.092134152336   120.81461083   180.61488072
 H     14  13   3     1.092465526400   119.61871758   177.42639342
 H     17   5   4     1.086563383615   119.37642844   356.11507553
 H     18  17   5     1.091742049750   119.80675476   179.54936943
 H     19  18  17     1.091684704289   120.49355279   180.75899663
 H     20  19  18     1.088776626698   118.57149080   175.56086575
 H     21  15  14     1.092315309689   118.21758780   354.72705502
 H     22  21  15     1.091718332081   120.52471394   180.73585326
 H     23  22  21     1.091837621111   119.75793886   185.06182733
 H     24  23  22     1.086768379380   118.65795132   183.34283952

---------------------------
INTERNAL COORDINATES (A.U.)
---------------------------
 C      0   0   0     0.000000000000     0.00000000     0.00000000
 C      1   0   0     2.674649671018     0.00000000     0.00000000
 C      2   1   0     2.726873136229   120.50149506     0.00000000
 C      3   2   1     2.655583348324   120.80887917   359.46931910
 C      4   3   2     2.770422566092   117.90109272    13.73788056
 C      5   4   3     2.677348459117   119.97948016   343.02837244
 C      1   2   3     2.647687757211   118.74255397   174.04482490
 C      7   1   2     2.623054106272   121.29724982     2.03495754
 C      8   7   1     2.623538684377   120.17528097     0.35723615
 C      9   8   7     2.638549031371   120.39199288   358.39082894
 C     10   9   8     2.728948616437   120.85707968   181.06999730
 C     11  10   9     2.546328136175   121.11976708   176.40277053
 C      3   2   1     2.714612550115   118.77944083   181.48226964
 C     13   3   2     2.603768339504   119.59232793   176.88225845
 C     14  13   3     2.660397041957   121.18287625   353.17293983
 C     15  14  13     2.699848175493   119.70873419     4.22674802
 C      5   4   3     2.670292153600   122.08980064   157.85901605
 C     17   5   4     2.607413571969   121.97590823   178.90724582
 C     18  17   5     2.642569301913   119.76682098     0.71381517
 C     19  18  17     2.606487329762   119.36496303     3.54587254
 C     15  14  13     2.689665328934   120.36182882   187.18139063
 C     21  15  14     2.583814988070   121.15988048   172.95392160
 C     22  21  15     2.672731404138   119.32441512   358.29838506
 C     23  22  21     2.590768236942   120.65173731     3.80743801
 H      7   1   2     2.057452039493   120.10072102   181.70706248
 H      8   7   1     2.062994518720   119.71189282   179.89404898
 H      9   8   7     2.063833558930   120.46622710   179.09979764
 H     11  10   9     2.063799956955   118.10405636   357.06651768
 H     12  11  10     2.063834449418   120.81461083   180.61488072
 H     14  13   3     2.064460655645   119.61871758   177.42639342
 H     17   5   4     2.053307222178   119.37642844   356.11507553
 H     18  17   5     2.063093482913   119.80675476   179.54936943
 H     19  18  17     2.062985115697   120.49355279   180.75899663
 H     20  19  18     2.057489645474   118.57149080   175.56086575
 H     21  15  14     2.064176787202   118.21758780   354.72705502
 H     22  21  15     2.063048663014   120.52471394   180.73585326
 H     23  22  21     2.063274086612   119.75793886   185.06182733
 H     24  23  22     2.053694608034   118.65795132   183.34283952

---------------------
BASIS SET INFORMATION
---------------------
There are 2 groups of distinct atoms

 Group   1 Type C   : 15s8p3d2f1g contracted to 7s4p3d2f1g pattern {8211111/5111/111/11/1}
 Group   2 Type H   : 7s3p2d1f contracted to 4s3p2d1f pattern {4111/111/11/1}

Atom   0C    basis set group =>   1
Atom   1C    basis set group =>   1
Atom   2C    basis set group =>   1
Atom   3C    basis set group =>   1
Atom   4C    basis set group =>   1
Atom   5C    basis set group =>   1
Atom   6C    basis set group =>   1
Atom   7C    basis set group =>   1
Atom   8C    basis set group =>   1
Atom   9C    basis set group =>   1
Atom  10C    basis set group =>   1
Atom  11C    basis set group =>   1
Atom  12C    basis set group =>   1
Atom  13C    basis set group =>   1
Atom  14C    basis set group =>   1
Atom  15C    basis set group =>   1
Atom  16C    basis set group =>   1
Atom  17C    basis set group =>   1
Atom  18C    basis set group =>   1
Atom  19C    basis set group =>   1
Atom  20C    basis set group =>   1
Atom  21C    basis set group =>   1
Atom  22C    basis set group =>   1
Atom  23C    basis set group =>   1
Atom  24H    basis set group =>   2
Atom  25H    basis set group =>   2
Atom  26H    basis set group =>   2
Atom  27H    basis set group =>   2
Atom  28H    basis set group =>   2
Atom  29H    basis set group =>   2
Atom  30H    basis set group =>   2
Atom  31H    basis set group =>   2
Atom  32H    basis set group =>   2
Atom  33H    basis set group =>   2
Atom  34H    basis set group =>   2
Atom  35H    basis set group =>   2
Atom  36H    basis set group =>   2
Atom  37H    basis set group =>   2


           ************************************************************
           *        Program running with 10 parallel MPI-processes    *
           *              working on a common directory               *
           ************************************************************
------------------------------------------------------------------------------
                             ORCA STARTUP CALCULATIONS
------------------------------------------------------------------------------
------------------------------------------------------------------------------
                   ___                                                        
                  /   \      - P O W E R E D   B Y -                         
                 /     \                                                     
                 |  |  |   _    _      __       _____    __    __             
                 |  |  |  | |  | |    /  \     |  _  \  |  |  /  |          
                  \  \/   | |  | |   /    \    | | | |  |  | /  /          
                 / \  \   | |__| |  /  /\  \   | |_| |  |  |/  /          
                |  |  |   |  __  | /  /__\  \  |    /   |      \           
                |  |  |   | |  | | |   __   |  |    \   |  |\   \          
                \     /   | |  | | |  |  |  |  | |\  \  |  | \   \       
                 \___/    |_|  |_| |__|  |__|  |_| \__\ |__|  \__/        
                                                                              
                      - O R C A' S   B I G   F R I E N D -                    
                                      &                                       
                       - I N T E G R A L  F E E D E R -                       
                                                                              
 v1 FN, 2020, v2 2021, v3 2022-2024                                           
------------------------------------------------------------------------------


----------------------
SHARK INTEGRAL PACKAGE
----------------------

Number of atoms                             ...     38
Number of basis functions                   ...   1788
Number of shells                            ...    548
Maximum angular momentum                    ...      4
Integral batch strategy                     ... SHARK/LIBINT Hybrid
RI-J (if used) integral strategy            ... SPLIT-RIJ (Revised 2003 algorithm where possible)
Printlevel                                  ...      1
Contraction scheme used                     ... SEGMENTED contraction
Prescreening option                         ... SCHWARTZ
   Thresh                                   ... 1.000e-10
   Tcut                                     ... 1.000e-11
   Tpresel                                  ... 1.000e-11 
Coulomb Range Separation                    ... NOT USED
Exchange Range Separation                   ... NOT USED
Multipole approximations                    ... NOT USED
Finite Nucleus Model                        ... NOT USED
CABS basis                                  ... NOT available
Auxiliary Coulomb fitting basis             ... NOT available
Auxiliary J/K fitting basis                 ... NOT available
Auxiliary Correlation fitting basis         ... NOT available
Auxiliary 'external' fitting basis          ... NOT available

Checking pre-screening integrals            ... done (  0.0 sec) Dimension = 548
Check shell pair data                       ... done (  0.0 sec)
Shell pair information
Shell pair cut-off parameter TPreSel        ...   1.0e-11
Total number of shell pairs                 ...    150426
Shell pairs after pre-screening             ...     92124
Total number of primitive shell pairs       ...    386901
Primitive shell pairs kept                  ...    163463
          la=0 lb=0:  14099 shell pairs
          la=1 lb=0:  20653 shell pairs
          la=1 lb=1:   7151 shell pairs
          la=2 lb=0:  12662 shell pairs
          la=2 lb=1:   9341 shell pairs
          la=2 lb=2:   3018 shell pairs
          la=3 lb=0:   7576 shell pairs
          la=3 lb=1:   5572 shell pairs
          la=3 lb=2:   3431 shell pairs
          la=3 lb=3:   1043 shell pairs
          la=4 lb=0:   2994 shell pairs
          la=4 lb=1:   2211 shell pairs
          la=4 lb=2:   1380 shell pairs
          la=4 lb=3:    814 shell pairs
          la=4 lb=4:    179 shell pairs

Calculating one electron integrals          ... done (  0.2 sec)
Calculating Nuclear repulsion               ... done (  0.0 sec) ENN=   1822.990476014147 Eh

Diagonalization of the overlap matrix:
Smallest eigenvalue                        ... 3.566e-07
Time for diagonalization                   ...    0.274 sec
Threshold for overlap eigenvalues          ... 1.000e-07
Number of eigenvalues below threshold      ... 0

IMPORTANT:
Smallest eigenvalue of S below the DiffSThresh (1.000e-06) while
Thresh>1e-12 and/or TCut>1e-13! In order to avoid SCF convergence issues,
Thresh will be set to at least 1e-12 and TCut to at least 1e-13.
This can be turned off by adding %SCF DiffSThresh -1 END to the input.

Time for construction of square roots      ...    0.233 sec
Total time needed                          ...    0.532 sec

-------------------
DFT GRID GENERATION
-------------------

General Integration Accuracy     IntAcc      ... 4.959
Radial Grid Type                 RadialGrid  ... OptM3 with GC (2021)
Angular Grid (max. ang.)         AngularGrid ... 6 (Lebedev-590)
Angular grid pruning method      GridPruning ... 4 (adaptive)
Weight generation scheme         WeightScheme... mBecke (2022)
Basis function cutoff            BFCut       ... 1.0000e-10
Integration weight cutoff        WCut        ... 1.0000e-14
Partially contracted basis set               ... off
Rotationally invariant grid construction     ... off
Angular grids for H and He will be reduced by one unit
Diffuse basis detected: some atoms will have their outermost
                        angular grid increased by 1.

Total number of grid points                  ...   467901
Total number of batches                      ...     7331
Average number of points per batch           ...       63
Average number of grid points per atom       ...    12313
Initializing property integral containers    ... done (  0.0 sec)

SHARK setup successfully completed in   7.0 seconds

Maximum memory used throughout the entire STARTUP-calculation: 226.2 MB


           ************************************************************
           *        Program running with 10 parallel MPI-processes    *
           *              working on a common directory               *
           ************************************************************
-------------------------------------------------------------------------------
                                 ORCA GUESS
                   Start orbitals & Density for SCF / CASSCF
-------------------------------------------------------------------------------

------------
SCF SETTINGS
------------
Hamiltonian:
 Density Functional     Method          .... DFT(GTOs)
 Exchange Functional    Exchange        .... PBE
   PBE kappa parameter   XKappa         ....  0.804000
   PBE mue parameter    XMuePBE         ....  0.219520
 Correlation Functional Correlation     .... P86
 LDA part of GGA corr.  LDAOpt          .... VWN-5
 Gradients option       PostSCFGGA      .... off
 Hybrid DFT is turned on
   Fraction HF Exchange ScalHFX         ....  0.690000
   Scaling of DF-GGA-X  ScalDFX         ....  0.310000
   Scaling of DF-GGA-C  ScalDFC         ....  0.403800
   Scaling of DF-LDA-C  ScalLDAC        ....  0.403800
   Perturbative correction              ....  1.000000


General Settings:
 Integral files         IntName         .... compas3D_hc_c24h14_0pent_2_qz_nori
 Hartree-Fock type      HFTyp           .... RHF
 Total Charge           Charge          ....    0
 Multiplicity           Mult            ....    1
 Number of Electrons    NEL             ....  158
 Basis Dimension        Dim             .... 1788
 Nuclear Repulsion      ENuc            ....   1822.9904760141 Eh

Convergence Acceleration:
 AO-DIIS                CNVDIIS         .... on
   Start iteration      DIISMaxIt       ....    12
   Startup error        DIISStart       ....  0.200000
   # of expansion vecs  DIISMaxEq       ....     5
   Bias factor          DIISBfac        ....   1.050
   Max. coefficient     DIISMaxC        ....  10.000
 MO-DIIS                CNVKDIIS        .... off
 Trust-Rad. Augm. Hess. CNVTRAH         .... auto
   Auto Start mean grad. ratio tolernc. ....  1.125000
   Auto Start start iteration           ....    50
   Auto Start num. interpolation iter.  ....    10
   Max. Number of Micro iterations      ....    24
   Max. Number of Macro iterations      .... Maxiter - #DIIS iter
   Number of Davidson start vectors     ....     2
   Converg. threshold    (grad. norm)   ....   5.000e-05
   Grad. Scal. Fac. for Micro threshold ....   0.100
   Minimum threshold for Micro iter.    ....   1.000e-02
   NR start threshold (gradient norm)   ....   1.000e-04
   Initial trust radius                 ....   0.400
   Minimum AH scaling param. (alpha)    ....   1.000
   Maximum AH scaling param. (alpha)    .... 1000.000
   Quad. conv. algorithm                .... NR
   White noise on init. David. guess    .... on
   Maximum white noise                  ....   0.010
   Pseudo random numbers                .... off
   Inactive MOs                         .... canonical
   Orbital update algorithm             .... Taylor
   Preconditioner                       .... Diag
   Full preconditioner red. dimension   ....   250
 SOSCF                  CNVSOSCF        .... on
   Start iteration      SOSCFMaxIt      ....   150
   Startup grad/error   SOSCFStart      ....  0.003300
   Hessian update       SOSCFHessUp     .... L-BFGS
 Level Shifting         CNVShift        .... on
   Level shift para.    LevelShift      ....    0.2500
   Turn off err/grad.   ShiftErr        ....    0.0010
 Zerner damping         CNVZerner       .... off
 Static damping         CNVDamp         .... on
   Fraction old density DampFac         ....    0.7000
   Max. Damping (<1)    DampMax         ....    0.9800
   Min. Damping (>=0)   DampMin         ....    0.0000
   Turn off err/grad.   DampErr         ....    0.1000

SCF Procedure:
 Maximum # iterations   MaxIter         ....   125
 SCF integral mode      SCFMode         .... Direct
   Integral package                     .... SHARK and LIBINT hybrid scheme
 Reset frequency        DirectResetFreq ....    20
 Integral Threshold     Thresh          ....  1.000e-12 Eh
 Primitive CutOff       TCut            ....  1.000e-13 Eh

Convergence Tolerance:
 Convergence Check Mode ConvCheckMode   .... Total+1el-Energy
 Convergence forced     ConvForced      .... 0
 Energy Change          TolE            ....  1.000e-06 Eh
 1-El. energy change                    ....  1.000e-03 Eh
 Orbital Gradient       TolG            ....  5.000e-05
 Orbital Rotation angle TolX            ....  5.000e-05
 DIIS Error             TolErr          ....  1.000e-06

------------------------------
INITIAL GUESS: MODEL POTENTIAL
------------------------------
Loading Hartree-Fock densities                     ... done
Calculating cut-offs                               ... done
Initializing the effective Hamiltonian             ... done
Setting up the integral package (SHARK)            ... done
Starting the Coulomb interaction                   ... done (   0.7 sec)
Making the grid                                    ... done (   0.3 sec)
Mapping shells                                     ... done
Starting the XC term evaluation                    ... done (   0.6 sec)
  promolecular density results
     # of electrons  =    158.003402281
     EX              =   -126.957011324
     EC              =      0.206260035
     EX+EC           =   -126.750751289
Transforming the Hamiltonian                       ... done (   0.2 sec)
Diagonalizing the Hamiltonian                      ... done (   0.3 sec)
Back transforming the eigenvectors                 ... done (   0.1 sec)
Now organizing SCF variables                       ... done
                      ------------------
                      INITIAL GUESS DONE (   2.3 sec)
                      ------------------
             **** ENERGY FILE WAS UPDATED (compas3D_hc_c24h14_0pent_2_qz_nori.en.tmp) ****
Finished Guess after   5.1 sec
Maximum memory used throughout the entire GUESS-calculation: 230.8 MB


           ************************************************************
           *        Program running with 10 parallel MPI-processes    *
           *              working on a common directory               *
           ************************************************************

-------------------------------------------------------------------------------------------
                                      ORCA LEAN-SCF
                              memory conserving SCF solver
-------------------------------------------------------------------------------------------

----------------------------------------D-I-I-S--------------------------------------------
Iteration    Energy (Eh)           Delta-E    RMSDP     MaxDP     DIISErr   Damp  Time(sec)
-------------------------------------------------------------------------------------------
               ***  Starting incremental Fock matrix formation  ***
