
                                 *****************
                                 * O   R   C   A *
                                 *****************

                                            #,                                       
                                            ###                                      
                                            ####                                     
                                            #####                                    
                                            ######                                   
                                           ########,                                 
                                     ,,################,,,,,                         
                               ,,#################################,,                 
                          ,,##########################################,,             
                       ,#########################################, ''#####,          
                    ,#############################################,,   '####,        
                  ,##################################################,,,,####,       
                ,###########''''           ''''###############################       
              ,#####''   ,,,,##########,,,,          '''####'''          '####       
            ,##' ,,,,###########################,,,                        '##       
           ' ,,###''''                  '''############,,,                           
         ,,##''                                '''############,,,,        ,,,,,,###''
      ,#''                                            '''#######################'''  
     '                                                          ''''####''''         
             ,#######,   #######,   ,#######,      ##                                
            ,#'     '#,  ##    ##  ,#'     '#,    #''#        ,####,   ,####,        
            ##       ##  ##   ,#'  ##            #'  '#       #'       #'  '#        
            ##       ##  #######   ##           ,######,      #####,   #    #        
            '#,     ,#'  ##    ##  '#,     ,#' ,#      #,     #,   #   #,  ,#        
             '#######'   ##     ##  '#######'  #'      '#     '####' # '####'        



                #########################################################
                #                        -***-                          #
                #          Department of theory and spectroscopy        #
                #                                                       #
                #                      Frank Neese                      #
                #                                                       #
                #     Directorship, Architecture, Infrastructure        #
                #                    SHARK, DRIVERS                     #
                #        Core code/Algorithms in most modules           #
                #                                                       #
                #        Max Planck Institute fuer Kohlenforschung      #
                #                Kaiser Wilhelm Platz 1                 #
                #                 D-45470 Muelheim/Ruhr                 #
                #                      Germany                          #
                #                                                       #
                #                  All rights reserved                  #
                #                        -***-                          #
                #########################################################


                         Program Version 6.0.1  -  RELEASE   -


 With contributions from (in alphabetic order):
[Max-Planck-Institut fuer Kohlenforschung]                               
  Daniel Aravena         : Magnetic Suceptibility                        
  Michael Atanasov       : Ab Initio Ligand Field Theory (pilot matlab implementation)
  Alexander A. Auer      : GIAO ZORA, VPT2 properties, NMR spectrum      
  Ute Becker             : All parallelization in ORCA, NUMFREQ, NUMCALC 
  Giovanni Bistoni       : ED, misc. LED, open-shell LED, HFLD           
  Martin Brehm           : Molecular dynamics                            
  Dmytro Bykov           : pre 5.0 version of the SCF Hessian            
  Marcos Casanova-Páez   : Triplet and SCS-CIS(D). UHF-(DLPNO)-IP/EA/STEOM-CCSD. UHF-CVS-IP/STEOM-CCSD   
  Vijay G. Chilkuri      : MRCI spin determinant printing, contributions to CSF-ICE 
  Pauline Colinet        : FMM embedding                                 
  Dipayan Datta          : RHF DLPNO-CCSD density                        
  Achintya Kumar Dutta   : EOM-CC, STEOM-CC                              
  Nicolas Foglia         : Exact transition moments, OPA infrastructure, MCD improvements    
  Dmitry Ganyushin       : Spin-Orbit,Spin-Spin,Magnetic field MRCI      
  Miquel Garcia-Rates    : C-PCM and meta-GGA Hessian, CCSD/C-PCM, Gaussian charge scheme 
  Tiago L. C. Gouveia    : GS-ROHF, GS-ROCIS                             
  Yang Guo               : DLPNO-NEVPT2, F12-NEVPT2, CIM, IAO-localization        
  Andreas Hansen         : Spin unrestricted coupled pair/coupled cluster methods 
  Ingolf Harden          : AUTO-CI MPn and infrastructure                
  Benjamin Helmich-Paris : MC-RPA, TRAH-(SCF,CASSCF), AVAS, COSX integrals, SCF dyn. polar. 
  Lee Huntington         : MR-EOM, pCC                                   
  Robert Izsak           : Overlap fitted RIJCOSX, COSX-SCS-MP3, EOM     
  Riya Kayal             : Wick's Theorem for AUTO-CI, AUTO-CI UHF-CCSDT 
  Emily Kempfer          : AUTO-CI, RHF CISDT and CCSDT                  
  Christian Kollmar      : KDIIS, OOCD, Brueckner-CCSD(T), CCSD density, CASPT2, CASPT2-K, improved NEVPT2 
  Axel Koslowski         : Symmetry handling                             
  Simone Kossmann        : meta-GGA functionals, TD-DFT gradient, OOMP2, (MP2 Hessian; deprecated post 5.0) 
  Lucas Lang             : DCDCAS                                        
  Marvin Lechner         : AUTO-CI (C++ implementation), FIC-MRCC        
  Spencer Leger          : CASSCF response                               
  Dagmar Lenk            : GEPOL surface, SMD, ORCA-2-JSON               
  Dimitrios Liakos       : Extrapolation schemes; Compound Job, initial MDCI parallelization 
  Dimitrios Manganas     : Further ROCIS development; embedding schemes. LFT, Crystal Embedding 
  Dimitrios Pantazis     : SARC Basis sets                               
  Anastasios Papadopoulos: AUTO-CI, single reference methods and gradients 
  Taras Petrenko         : pre 6.0 DFT Hessian and TD-DFT gradient, (ASA, deprecated), ECA, 1-Electron XAS/XES, NRVS 
  Peter Pinski           : DLPNO-MP2, DLPNO-MP2 Gradient                 
  Christoph Reimann      : Effective Core Potentials                     
  Marius Retegan         : Local ZFS, SOC                                
  Christoph Riplinger    : Optimizer, TS searches, QM/MM, DLPNO-CCSD(T), (RO)-DLPNO pert. Triples 
  Michael Roemelt        : Original ROCIS implementation                 
  Masaaki Saitow         : Open-shell DLPNO-CCSD energy and density      
  Barbara Sandhoefer     : DKH picture change effects                    
  Kantharuban Sivalingam : CASSCF convergence/infrastructure, NEVPT2 and variants, FIC-MRCI 
  Bernardo de Souza      : ESD, SOC TD-DFT                               
  Georgi L. Stoychev     : AutoAux, RI-MP2 NMR, DLPNO-MP2 response, X2C  
  Van Anh Tran           : RI-MP2 g-tensors                              
  Willem Van den Heuvel  : Paramagnetic NMR                              
  Zikuan Wang            : NOTCH, Electric field optimization            
  Frank Wennmohs         : Technical directorship and infrastructure     
  Hang Xu                : AUTO-CI-Response properties                   
                                                                         
[FACCTs GmbH]                                                            
  Markus Bursch, Miquel Garcia-Rates, Christoph Riplinger, Bernardo de Souza, Georgi L. Stoychev 
                                                                 
  APM, Basis sets (HGBS, AHGBS, def-TZVP (Ac-Lr), def2-XVPD (La-Lu)), CI-OPT, improved COSX, DLPNO-Multilevel,           
  DOCKER, DRACO, updates on ESD, GOAT, IRC, LR-CPCM, MBIS, meta-GGA TD-DFT gradient, ML-optimized integration grids, 
  MM, NACMEs, nearIR, NEB, NEB-TS, NL-DFT gradient (VV10), 2- and 3-layer-ONIOM, interface openCOSMO-RS, QMMM,   
  Crystal-QMMM, SF, symmetry and pop. for TD-DFT, r2SCAN hybrids, SOLVATOR                                   
                                                                         
[Other institutions]                                                     
  V. Asgeirsson          : NEB                                           
  Christoph Bannwarth    : sTDA-DFT, sTD-DFT, PBEh-3c, B97-3c, D3        
  Sebastian Ehlert       : rSCAN, r2SCAN, r2SCAN-3c, D4, dhf basis sets  
  Marvin Friede          : D4 for Fr, Ra, Ac-Lr                          
  Lars Goerigk           : TD-DFT with DH, B97 family of functionals     
  Stefan Grimme          : VdW corrections, initial TS optimization, DFT functionals, gCP, sTDA/sTD-DF 
  Waldemar Hujo          : DFT-NL                                        
  H. Jonsson             : NEB                                           
  Holger Kruse           : gCP                                           
  Marcel Mueller         : wB97X-3c, vDZP basis set                      
  Hagen Neugebauer       : wr2SCAN                                       
  Tobias Risthaus        : range-separated hybrid DFT                    
  Lukas Wittmann         : regularized MP2, r2SCAN double-hybrids, wr2SCAN        
                                                                         
We gratefully acknowledge several colleagues who have allowed us to      
interface, adapt or use parts of their codes:                            
  Ed Valeev, F. Pavosevic, A. Kumar             : LibInt (2-el integral package), F12 methods 
  Garnet Chan, S. Sharma, J. Yang, R. Olivares  : DMRG                   
  Ulf Ekstrom                                   : XCFun DFT Library      
  Mihaly Kallay                                 : mrcc  (arbitrary order and MRCC methods)
  Frank Weinhold                                : gennbo (NPA and NBO analysis)           
  Simon Mueller                                 : openCOSMO-RS                            
  Christopher J. Cramer and Donald G. Truhlar   : smd solvation model                     
  S Lehtola, MJT Oliveira, MAL Marques          : LibXC Library                           
  Liviu Ungur et al                             : ANISO software                          


 Your calculation uses the libint2 library for the computation of 2-el integrals
 For citations please refer to: http://libint.valeyev.net

 Your ORCA version has been built with support for libXC version: 6.2.2
 For citations please refer to: https://libxc.gitlab.io

 This ORCA versions uses:
   CBLAS   interface :  Fast vector & matrix operations
   LAPACKE interface :  Fast linear algebra routines
   SCALAPACK package :  Parallel linear algebra routines
   Shared memory     :  Shared parallel matrices
   BLAS/LAPACK       :  OpenBLAS 0.3.27  USE64BITINT DYNAMIC_ARCH NO_AFFINITY SapphireRapids SINGLE_THREADED
        Core in use  :  SapphireRapids
   Copyright (c) 2011-2014, The OpenBLAS Project




***************************************
The coordinates will be read from file: /scratch/kx58/rs2200/dhdft/inputs/compas3D-xyzs/hc_c24h14_0pent_2.xyz
***************************************


Your calculation utilizes the atom-pairwise dispersion correction
based on EEQ partial charges (D4)


Warning: RI is on but no J-basis has been assigned. Assigning Def2/J (nothing to worry about!)
================================================================================

----- Orbital basis set information -----
Your calculation utilizes the basis: def2-QZVPP
   F. Weigend and R. Ahlrichs, Phys. Chem. Chem. Phys. 7, 3297 (2005).

----- AuxJ basis set information -----
Your calculation utilizes the auxiliary basis: def2/J
   F. Weigend, Phys. Chem. Chem. Phys. 8, 1057 (2006).

----- AuxC basis set information -----
Your calculation utilizes the auxiliary basis: def2-QZVPP/C
  H-La, Hf-Rn : A. Hellweg, C. Hattig, S. Hofener and W. Klopper, Theor. Chem. Acc. 117, 587 (2007).
        Ce-Lu : J. Chmela and M. E. Harding, Mol. Phys. (2018).

================================================================================
                                        WARNINGS
                       Please study these warnings very carefully!
================================================================================


WARNING: No MP2 level density has been requested!
         To calculate MP2 level properties use
         %mp2 Density relaxed end
         or
         %mp2 Density unrelaxed end
         Otherwise for double-hybrid DFT only the energy is correct!

================================================================================
                                       INPUT FILE
================================================================================
NAME = compas3D_hc_c24h14_0pent_2_qz_ri.inp
|  1> ! RKS revDSD-PBEP86-D4/2021 defgrid3  NOPOP NoFrozencore NoUseSym
|  2> 
|  3> %basis
|  4> Basis "def2-QZVPP"
|  5> 
|  6> AuxC "def2-QZVPP/C"
|  7> end
|  8> 
|  9> %method
| 10> ScalHFX 0.69
| 11> ScalDFX 0.31
| 12> ScalDFC 0.4038
| 13> ScalLDAC 0.4038
| 14> 
| 15> D4S6 0.4612
| 16> D4S8 0.0
| 17> D4A1 0.44
| 18> D4A2 3.60
| 19> end
| 20> 
| 21> %mp2
| 22> PS 0.5979
| 23> PT 0.0571
| 24> end
| 25> 
| 26> %pal
| 27> nprocs 104
| 28> end
| 29> 
| 30> *XYZFILE 0 1 /scratch/kx58/rs2200/dhdft/inputs/compas3D-xyzs/hc_c24h14_0pent_2.xyz
| 31> 
| 32>                          ****END OF INPUT****
================================================================================

                       ****************************
                       * Single Point Calculation *
                       ****************************

---------------------------------
CARTESIAN COORDINATES (ANGSTROEM)
---------------------------------
  C      2.268688   -0.113118   -0.244302
  C      1.354066   -1.181930   -0.400392
  C     -0.063135   -0.962435   -0.240365
  C     -0.562223    0.310633    0.083677
  C      0.343310    1.456159   -0.046959
  C      1.741948    1.246843   -0.132388
  C      3.641587   -0.390187   -0.282391
  C      4.111606   -1.676184   -0.510440
  C      3.218749   -2.719608   -0.714142
  C      1.842216   -2.492461   -0.658431
  C      0.904740   -3.574757   -0.846025
  C     -0.422232   -3.375976   -0.722426
  C     -0.955626   -2.079947   -0.375245
  C     -2.305288   -1.902410   -0.162229
  C     -2.812298   -0.682071    0.323235
  C     -1.929676    0.424687    0.516220
  C     -0.134509    2.777195   -0.199561
  C      0.719670    3.856114   -0.300131
  C      2.102696    3.652171   -0.266469
  C      2.595351    2.365239   -0.206896
  C     -4.184842   -0.564792    0.681259
  C     -4.664236    0.563757    1.286286
  C     -3.772084    1.617472    1.593092
  C     -2.454484    1.548516    1.220602
  H      4.364524    0.410822   -0.137004
  H      5.186953   -1.862557   -0.536524
  H      3.583464   -3.730527   -0.908516
  H      1.301987   -4.564615   -1.080744
  H     -1.126208   -4.200263   -0.855561
  H     -2.989570   -2.741831   -0.305798
  H     -1.203686    2.950687   -0.285466
  H      0.312054    4.861232   -0.424586
  H      2.789212    4.498392   -0.332667
  H      3.672969    2.217447   -0.255182
  H     -4.843723   -1.414017    0.486721
  H     -5.716562    0.637891    1.567290
  H     -4.130039    2.485843    2.149788
  H     -1.785372    2.350585    1.520670

----------------------------
CARTESIAN COORDINATES (A.U.)
----------------------------
  NO LB      ZA    FRAG     MASS         X           Y           Z
   0 C     6.0000    0    12.011    4.287199   -0.213763   -0.461664
   1 C     6.0000    0    12.011    2.558815   -2.233523   -0.756632
   2 C     6.0000    0    12.011   -0.119308   -1.818739   -0.454224
   3 C     6.0000    0    12.011   -1.062448    0.587011    0.158126
   4 C     6.0000    0    12.011    0.648761    2.751742   -0.088740
   5 C     6.0000    0    12.011    3.291804    2.356192   -0.250176
   6 C     6.0000    0    12.011    6.881602   -0.737346   -0.533642
   7 C     6.0000    0    12.011    7.769810   -3.167528   -0.964591
   8 C     6.0000    0    12.011    6.082554   -5.139315   -1.349533
   9 C     6.0000    0    12.011    3.481284   -4.710069   -1.244253
  10 C     6.0000    0    12.011    1.709711   -6.755312   -1.598755
  11 C     6.0000    0    12.011   -0.797902   -6.379669   -1.365188
  12 C     6.0000    0    12.011   -1.805871   -3.930530   -0.709110
  13 C     6.0000    0    12.011   -4.356364   -3.595034   -0.306568
  14 C     6.0000    0    12.011   -5.314474   -1.288928    0.610826
  15 C     6.0000    0    12.011   -3.646559    0.802542    0.975514
  16 C     6.0000    0    12.011   -0.254184    5.248138   -0.377115
  17 C     6.0000    0    12.011    1.359980    7.287000   -0.567165
  18 C     6.0000    0    12.011    3.973520    6.901603   -0.503554
  19 C     6.0000    0    12.011    4.904503    4.469654   -0.390977
  20 C     6.0000    0    12.011   -7.908205   -1.067302    1.287393
  21 C     6.0000    0    12.011   -8.814129    1.065346    2.430728
  22 C     6.0000    0    12.011   -7.128205    3.056580    3.010509
  23 C     6.0000    0    12.011   -4.638302    2.926272    2.306603
  24 H     1.0000    0     1.008    8.247755    0.776342   -0.258900
  25 H     1.0000    0     1.008    9.801921   -3.519722   -1.013883
  26 H     1.0000    0     1.008    6.771766   -7.049675   -1.716846
  27 H     1.0000    0     1.008    2.460400   -8.625873   -2.042310
  28 H     1.0000    0     1.008   -2.128224   -7.937347   -1.616776
  29 H     1.0000    0     1.008   -5.649468   -5.181310   -0.577874
  30 H     1.0000    0     1.008   -2.274637    5.575991   -0.539453
  31 H     1.0000    0     1.008    0.589696    9.186396   -0.802352
  32 H     1.0000    0     1.008    5.270846    8.500729   -0.628650
  33 H     1.0000    0     1.008    6.940906    4.190367   -0.482224
  34 H     1.0000    0     1.008   -9.153309   -2.672105    0.919769
  35 H     1.0000    0     1.008  -10.802736    1.205440    2.961749
  36 H     1.0000    0     1.008   -7.804643    4.697562    4.062511
  37 H     1.0000    0     1.008   -3.373865    4.441962    2.873649

--------------------------------
INTERNAL COORDINATES (ANGSTROEM)
--------------------------------
 C      0   0   0     0.000000000000     0.00000000     0.00000000
 C      1   0   0     1.415363646090     0.00000000     0.00000000
 C      2   1   0     1.442999113618   120.50149506     0.00000000
 C      3   2   1     1.405274182674   120.80887917   359.46931910
 C      4   3   2     1.466044479336   117.90109272    13.73788056
 C      5   4   3     1.416791783242   119.97948016   343.02837244
 C      1   2   3     1.401096015811   118.74255397   174.04482490
 C      7   1   2     1.388060449177   121.29724982     2.03495754
 C      8   7   1     1.388316876866   120.17528097     0.35723615
 C      9   8   7     1.396260010384   120.39199288   358.39082894
 C     10   9   8     1.444097410440   120.85707968   181.06999730
 C     11  10   9     1.347458814517   121.11976708   176.40277053
 C      3   2   1     1.436511090886   118.77944083   181.48226964
 C     13   3   2     1.377854860959   119.59232793   176.88225845
 C     14  13   3     1.407821479633   121.18287625   353.17293983
 C     15  14  13     1.428698120341   119.70873419     4.22674802
 C      5   4   3     1.413057747188   122.08980064   157.85901605
 C     17   5   4     1.379783834898   121.97590823   178.90724582
 C     18  17   5     1.398387445926   119.76682098     0.71381517
 C     19  18  17     1.379293688633   119.36496303     3.54587254
 C     15  14  13     1.423309590027   120.36182882   187.18139063
 C     21  15  14     1.367296002150   121.15988048   172.95392160
 C     22  21  15     1.414348542978   119.32441512   358.29838506
 C     23  22  21     1.370975502977   120.65173731     3.80743801
 H      7   1   2     1.088756726470   120.10072102   181.70706248
 H      8   7   1     1.091689680154   119.71189282   179.89404898
 H      9   8   7     1.092133681110   120.46622710   179.09979764
 H     11  10   9     1.092115899711   118.10405636   357.06651768
 H     12  11  10     1.092134152336   120.81461083   180.61488072
 H     14  13   3     1.092465526400   119.61871758   177.42639342
 H     17   5   4     1.086563383615   119.37642844   356.11507553
 H     18  17   5     1.091742049750   119.80675476   179.54936943
 H     19  18  17     1.091684704289   120.49355279   180.75899663
 H     20  19  18     1.088776626698   118.57149080   175.56086575
 H     21  15  14     1.092315309689   118.21758780   354.72705502
 H     22  21  15     1.091718332081   120.52471394   180.73585326
 H     23  22  21     1.091837621111   119.75793886   185.06182733
 H     24  23  22     1.086768379380   118.65795132   183.34283952

---------------------------
INTERNAL COORDINATES (A.U.)
---------------------------
 C      0   0   0     0.000000000000     0.00000000     0.00000000
 C      1   0   0     2.674649671018     0.00000000     0.00000000
 C      2   1   0     2.726873136229   120.50149506     0.00000000
 C      3   2   1     2.655583348324   120.80887917   359.46931910
 C      4   3   2     2.770422566092   117.90109272    13.73788056
 C      5   4   3     2.677348459117   119.97948016   343.02837244
 C      1   2   3     2.647687757211   118.74255397   174.04482490
 C      7   1   2     2.623054106272   121.29724982     2.03495754
 C      8   7   1     2.623538684377   120.17528097     0.35723615
 C      9   8   7     2.638549031371   120.39199288   358.39082894
 C     10   9   8     2.728948616437   120.85707968   181.06999730
 C     11  10   9     2.546328136175   121.11976708   176.40277053
 C      3   2   1     2.714612550115   118.77944083   181.48226964
 C     13   3   2     2.603768339504   119.59232793   176.88225845
 C     14  13   3     2.660397041957   121.18287625   353.17293983
 C     15  14  13     2.699848175493   119.70873419     4.22674802
 C      5   4   3     2.670292153600   122.08980064   157.85901605
 C     17   5   4     2.607413571969   121.97590823   178.90724582
 C     18  17   5     2.642569301913   119.76682098     0.71381517
 C     19  18  17     2.606487329762   119.36496303     3.54587254
 C     15  14  13     2.689665328934   120.36182882   187.18139063
 C     21  15  14     2.583814988070   121.15988048   172.95392160
 C     22  21  15     2.672731404138   119.32441512   358.29838506
 C     23  22  21     2.590768236942   120.65173731     3.80743801
 H      7   1   2     2.057452039493   120.10072102   181.70706248
 H      8   7   1     2.062994518720   119.71189282   179.89404898
 H      9   8   7     2.063833558930   120.46622710   179.09979764
 H     11  10   9     2.063799956955   118.10405636   357.06651768
 H     12  11  10     2.063834449418   120.81461083   180.61488072
 H     14  13   3     2.064460655645   119.61871758   177.42639342
 H     17   5   4     2.053307222178   119.37642844   356.11507553
 H     18  17   5     2.063093482913   119.80675476   179.54936943
 H     19  18  17     2.062985115697   120.49355279   180.75899663
 H     20  19  18     2.057489645474   118.57149080   175.56086575
 H     21  15  14     2.064176787202   118.21758780   354.72705502
 H     22  21  15     2.063048663014   120.52471394   180.73585326
 H     23  22  21     2.063274086612   119.75793886   185.06182733
 H     24  23  22     2.053694608034   118.65795132   183.34283952

---------------------
BASIS SET INFORMATION
---------------------
There are 2 groups of distinct atoms

 Group   1 Type C   : 15s8p3d2f1g contracted to 7s4p3d2f1g pattern {8211111/5111/111/11/1}
 Group   2 Type H   : 7s3p2d1f contracted to 4s3p2d1f pattern {4111/111/11/1}

Atom   0C    basis set group =>   1
Atom   1C    basis set group =>   1
Atom   2C    basis set group =>   1
Atom   3C    basis set group =>   1
Atom   4C    basis set group =>   1
Atom   5C    basis set group =>   1
Atom   6C    basis set group =>   1
Atom   7C    basis set group =>   1
Atom   8C    basis set group =>   1
Atom   9C    basis set group =>   1
Atom  10C    basis set group =>   1
Atom  11C    basis set group =>   1
Atom  12C    basis set group =>   1
Atom  13C    basis set group =>   1
Atom  14C    basis set group =>   1
Atom  15C    basis set group =>   1
Atom  16C    basis set group =>   1
Atom  17C    basis set group =>   1
Atom  18C    basis set group =>   1
Atom  19C    basis set group =>   1
Atom  20C    basis set group =>   1
Atom  21C    basis set group =>   1
Atom  22C    basis set group =>   1
Atom  23C    basis set group =>   1
Atom  24H    basis set group =>   2
Atom  25H    basis set group =>   2
Atom  26H    basis set group =>   2
Atom  27H    basis set group =>   2
Atom  28H    basis set group =>   2
Atom  29H    basis set group =>   2
Atom  30H    basis set group =>   2
Atom  31H    basis set group =>   2
Atom  32H    basis set group =>   2
Atom  33H    basis set group =>   2
Atom  34H    basis set group =>   2
Atom  35H    basis set group =>   2
Atom  36H    basis set group =>   2
Atom  37H    basis set group =>   2
---------------------------------
AUXILIARY/J BASIS SET INFORMATION
---------------------------------
There are 2 groups of distinct atoms

 Group   1 Type C   : 12s5p4d2f1g contracted to 6s4p3d1f1g pattern {711111/2111/211/2/1}
 Group   2 Type H   : 5s2p1d contracted to 3s1p1d pattern {311/2/1}

Atom   0C    basis set group =>   1
Atom   1C    basis set group =>   1
Atom   2C    basis set group =>   1
Atom   3C    basis set group =>   1
Atom   4C    basis set group =>   1
Atom   5C    basis set group =>   1
Atom   6C    basis set group =>   1
Atom   7C    basis set group =>   1
Atom   8C    basis set group =>   1
Atom   9C    basis set group =>   1
Atom  10C    basis set group =>   1
Atom  11C    basis set group =>   1
Atom  12C    basis set group =>   1
Atom  13C    basis set group =>   1
Atom  14C    basis set group =>   1
Atom  15C    basis set group =>   1
Atom  16C    basis set group =>   1
Atom  17C    basis set group =>   1
Atom  18C    basis set group =>   1
Atom  19C    basis set group =>   1
Atom  20C    basis set group =>   1
Atom  21C    basis set group =>   1
Atom  22C    basis set group =>   1
Atom  23C    basis set group =>   1
Atom  24H    basis set group =>   2
Atom  25H    basis set group =>   2
Atom  26H    basis set group =>   2
Atom  27H    basis set group =>   2
Atom  28H    basis set group =>   2
Atom  29H    basis set group =>   2
Atom  30H    basis set group =>   2
Atom  31H    basis set group =>   2
Atom  32H    basis set group =>   2
Atom  33H    basis set group =>   2
Atom  34H    basis set group =>   2
Atom  35H    basis set group =>   2
Atom  36H    basis set group =>   2
Atom  37H    basis set group =>   2
---------------------------------
AUXILIARY/C BASIS SET INFORMATION
---------------------------------
There are 2 groups of distinct atoms

 Group   1 Type C   : 9s8p7d5f3g1h contracted to 9s8p7d5f3g1h pattern {111111111/11111111/1111111/11111/111/1}
 Group   2 Type H   : 6s4p3d2f1g contracted to 6s4p3d2f1g pattern {111111/1111/111/11/1}

Atom   0C    basis set group =>   1
Atom   1C    basis set group =>   1
Atom   2C    basis set group =>   1
Atom   3C    basis set group =>   1
Atom   4C    basis set group =>   1
Atom   5C    basis set group =>   1
Atom   6C    basis set group =>   1
Atom   7C    basis set group =>   1
Atom   8C    basis set group =>   1
Atom   9C    basis set group =>   1
Atom  10C    basis set group =>   1
Atom  11C    basis set group =>   1
Atom  12C    basis set group =>   1
Atom  13C    basis set group =>   1
Atom  14C    basis set group =>   1
Atom  15C    basis set group =>   1
Atom  16C    basis set group =>   1
Atom  17C    basis set group =>   1
Atom  18C    basis set group =>   1
Atom  19C    basis set group =>   1
Atom  20C    basis set group =>   1
Atom  21C    basis set group =>   1
Atom  22C    basis set group =>   1
Atom  23C    basis set group =>   1
Atom  24H    basis set group =>   2
Atom  25H    basis set group =>   2
Atom  26H    basis set group =>   2
Atom  27H    basis set group =>   2
Atom  28H    basis set group =>   2
Atom  29H    basis set group =>   2
Atom  30H    basis set group =>   2
Atom  31H    basis set group =>   2
Atom  32H    basis set group =>   2
Atom  33H    basis set group =>   2
Atom  34H    basis set group =>   2
Atom  35H    basis set group =>   2
Atom  36H    basis set group =>   2
Atom  37H    basis set group =>   2


           ************************************************************
           *        Program running with 104 parallel MPI-processes   *
           *              working on a common directory               *
           ************************************************************
------------------------------------------------------------------------------
                             ORCA STARTUP CALCULATIONS
                           -- RI-GTO INTEGRALS CHOSEN --
------------------------------------------------------------------------------
------------------------------------------------------------------------------
                   ___                                                        
                  /   \      - P O W E R E D   B Y -                         
                 /     \                                                     
                 |  |  |   _    _      __       _____    __    __             
                 |  |  |  | |  | |    /  \     |  _  \  |  |  /  |          
                  \  \/   | |  | |   /    \    | | | |  |  | /  /          
                 / \  \   | |__| |  /  /\  \   | |_| |  |  |/  /          
                |  |  |   |  __  | /  /__\  \  |    /   |      \           
                |  |  |   | |  | | |   __   |  |    \   |  |\   \          
                \     /   | |  | | |  |  |  |  | |\  \  |  | \   \       
                 \___/    |_|  |_| |__|  |__|  |_| \__\ |__|  \__/        
                                                                              
                      - O R C A' S   B I G   F R I E N D -                    
                                      &                                       
                       - I N T E G R A L  F E E D E R -                       
                                                                              
 v1 FN, 2020, v2 2021, v3 2022-2024                                           
------------------------------------------------------------------------------


----------------------
SHARK INTEGRAL PACKAGE
----------------------

Number of atoms                             ...     38
Number of basis functions                   ...   1788
Number of shells                            ...    548
Maximum angular momentum                    ...      4
Integral batch strategy                     ... SHARK/LIBINT Hybrid
RI-J (if used) integral strategy            ... SPLIT-RIJ (Revised 2003 algorithm where possible)
Printlevel                                  ...      1
Contraction scheme used                     ... SEGMENTED contraction
Prescreening option                         ... SCHWARTZ
   Thresh                                   ... 1.000e-10
   Tcut                                     ... 1.000e-11
   Tpresel                                  ... 1.000e-11 
Coulomb Range Separation                    ... NOT USED
Exchange Range Separation                   ... NOT USED
Multipole approximations                    ... NOT USED
Finite Nucleus Model                        ... NOT USED
CABS basis                                  ... NOT available
Auxiliary Coulomb fitting basis             ... AVAILABLE
   # of basis functions in Aux-J            ...   1330
   # of shells in Aux-J                     ...    430
   Maximum angular momentum in Aux-J        ...      4
Auxiliary J/K fitting basis                 ... NOT available
Auxiliary Correlation fitting basis         ... AVAILABLE
   # of basis functions in Aux-C            ...   4168
   # of shells in Aux-C                     ...   1016
   Maximum angular momentum in Aux-C        ...      5
Auxiliary 'external' fitting basis          ... NOT available

Checking pre-screening integrals            ... done (  0.0 sec) Dimension = 548
Check shell pair data                       ... done (  0.0 sec)
Shell pair information
Shell pair cut-off parameter TPreSel        ...   1.0e-11
Total number of shell pairs                 ...    150426
Shell pairs after pre-screening             ...     92124
Total number of primitive shell pairs       ...    386901
Primitive shell pairs kept                  ...    163463
          la=0 lb=0:  14099 shell pairs
          la=1 lb=0:  20653 shell pairs
          la=1 lb=1:   7151 shell pairs
          la=2 lb=0:  12662 shell pairs
          la=2 lb=1:   9341 shell pairs
          la=2 lb=2:   3018 shell pairs
          la=3 lb=0:   7576 shell pairs
          la=3 lb=1:   5572 shell pairs
          la=3 lb=2:   3431 shell pairs
          la=3 lb=3:   1043 shell pairs
          la=4 lb=0:   2994 shell pairs
          la=4 lb=1:   2211 shell pairs
          la=4 lb=2:   1380 shell pairs
          la=4 lb=3:    814 shell pairs
          la=4 lb=4:    179 shell pairs

Calculating one electron integrals          ... done (  1.2 sec)
Calculating RI/J V-Matrix + Cholesky decomp.... done (  0.3 sec)
Calculating RI/C V-Matrix + Cholesky decomp.... done (  1.0 sec)
Calculating Nuclear repulsion               ... done (  0.0 sec) ENN=   1822.990476014147 Eh

Diagonalization of the overlap matrix:
Smallest eigenvalue                        ... 3.566e-07
Time for diagonalization                   ...    0.569 sec
Threshold for overlap eigenvalues          ... 1.000e-07
Number of eigenvalues below threshold      ... 0

IMPORTANT:
Smallest eigenvalue of S below the DiffSThresh (1.000e-06) while
Thresh>1e-12 and/or TCut>1e-13! In order to avoid SCF convergence issues,
Thresh will be set to at least 1e-12 and TCut to at least 1e-13.
This can be turned off by adding %SCF DiffSThresh -1 END to the input.

Time for construction of square roots      ...    0.343 sec
Total time needed                          ...    0.974 sec

-------------------
DFT GRID GENERATION
-------------------

General Integration Accuracy     IntAcc      ... 4.959
Radial Grid Type                 RadialGrid  ... OptM3 with GC (2021)
Angular Grid (max. ang.)         AngularGrid ... 6 (Lebedev-590)
Angular grid pruning method      GridPruning ... 4 (adaptive)
Weight generation scheme         WeightScheme... mBecke (2022)
Basis function cutoff            BFCut       ... 1.0000e-10
Integration weight cutoff        WCut        ... 1.0000e-14
Partially contracted basis set               ... off
Rotationally invariant grid construction     ... off
Angular grids for H and He will be reduced by one unit
Diffuse basis detected: some atoms will have their outermost
                        angular grid increased by 1.

Total number of grid points                  ...   467901
Total number of batches                      ...     7331
Average number of points per batch           ...       63
Average number of grid points per atom       ...    12313

--------------------
COSX GRID GENERATION
--------------------

GRIDX 1
-------
General Integration Accuracy     IntAcc      ... 4.020
Radial Grid Type                 RadialGrid  ... OptM3 with GC (2021)
Angular Grid (max. ang.)         AngularGrid ... 2 (Lebedev-110)
Angular grid pruning method      GridPruning ... 4 (adaptive)
Weight generation scheme         WeightScheme... mBecke (2022)
Basis function cutoff            BFCut       ... 1.0000e-10
Integration weight cutoff        WCut        ... 1.0000e-14
Partially contracted basis set               ... on
Rotationally invariant grid construction     ... off
Angular grids for H and He will be reduced by one unit
Diffuse basis detected: some atoms will have their outermost
                        angular grid increased by 1.

Total number of grid points                  ...    57915
Total number of batches                      ...      469
Average number of points per batch           ...      123
Average number of grid points per atom       ...     1524
UseSFitting                                  ... on

GRIDX 2
-------
General Integration Accuracy     IntAcc      ... 4.338
Radial Grid Type                 RadialGrid  ... OptM3 with GC (2021)
Angular Grid (max. ang.)         AngularGrid ... 3 (Lebedev-194)
Angular grid pruning method      GridPruning ... 4 (adaptive)
Weight generation scheme         WeightScheme... mBecke (2022)
Basis function cutoff            BFCut       ... 1.0000e-10
Integration weight cutoff        WCut        ... 1.0000e-14
Partially contracted basis set               ... on
Rotationally invariant grid construction     ... off
Angular grids for H and He will be reduced by one unit
Diffuse basis detected: some atoms will have their outermost
                        angular grid increased by 1.

Total number of grid points                  ...   125124
Total number of batches                      ...      997
Average number of points per batch           ...      125
Average number of grid points per atom       ...     3293
UseSFitting                                  ... on

GRIDX 3
-------
General Integration Accuracy     IntAcc      ... 4.871
Radial Grid Type                 RadialGrid  ... OptM3 with GC (2021)
Angular Grid (max. ang.)         AngularGrid ... 4 (Lebedev-302)
Angular grid pruning method      GridPruning ... 4 (adaptive)
Weight generation scheme         WeightScheme... mBecke (2022)
Basis function cutoff            BFCut       ... 1.0000e-10
Integration weight cutoff        WCut        ... 1.0000e-14
Partially contracted basis set               ... on
Rotationally invariant grid construction     ... off
Angular grids for H and He will be reduced by one unit
Diffuse basis detected: some atoms will have their outermost
                        angular grid increased by 1.

Total number of grid points                  ...   228006
Total number of batches                      ...     1799
Average number of points per batch           ...      126
Average number of grid points per atom       ...     6000
UseSFitting                                  ... on
Initializing property integral containers    ... done (  0.0 sec)

SHARK setup successfully completed in  14.4 seconds

Maximum memory used throughout the entire STARTUP-calculation: 222.5 MB


           ************************************************************
           *        Program running with 104 parallel MPI-processes   *
           *              working on a common directory               *
           ************************************************************
-------------------------------------------------------------------------------
                                 ORCA GUESS
                   Start orbitals & Density for SCF / CASSCF
-------------------------------------------------------------------------------

------------
SCF SETTINGS
------------
Hamiltonian:
 Density Functional     Method          .... DFT(GTOs)
 Exchange Functional    Exchange        .... PBE
   PBE kappa parameter   XKappa         ....  0.804000
   PBE mue parameter    XMuePBE         ....  0.219520
 Correlation Functional Correlation     .... P86
 LDA part of GGA corr.  LDAOpt          .... VWN-5
 Gradients option       PostSCFGGA      .... off
 Hybrid DFT is turned on
   Fraction HF Exchange ScalHFX         ....  0.690000
   Scaling of DF-GGA-X  ScalDFX         ....  0.310000
   Scaling of DF-GGA-C  ScalDFC         ....  0.403800
   Scaling of DF-LDA-C  ScalLDAC        ....  0.403800
   Perturbative correction              ....  1.000000
 RI-approximation to the Coulomb term is turned on
   Number of AuxJ basis functions       .... 1330
   RIJ-COSX (HFX calculated with COS-X)).... on


General Settings:
 Integral files         IntName         .... compas3D_hc_c24h14_0pent_2_qz_ri
 Hartree-Fock type      HFTyp           .... RHF
 Total Charge           Charge          ....    0
 Multiplicity           Mult            ....    1
 Number of Electrons    NEL             ....  158
 Basis Dimension        Dim             .... 1788
 Nuclear Repulsion      ENuc            ....   1822.9904760141 Eh

Convergence Acceleration:
 AO-DIIS                CNVDIIS         .... on
   Start iteration      DIISMaxIt       ....    12
   Startup error        DIISStart       ....  0.200000
   # of expansion vecs  DIISMaxEq       ....     5
   Bias factor          DIISBfac        ....   1.050
   Max. coefficient     DIISMaxC        ....  10.000
 MO-DIIS                CNVKDIIS        .... off
 Trust-Rad. Augm. Hess. CNVTRAH         .... auto
   Auto Start mean grad. ratio tolernc. ....  1.125000
   Auto Start start iteration           ....    50
   Auto Start num. interpolation iter.  ....    10
   Max. Number of Micro iterations      ....    24
   Max. Number of Macro iterations      .... Maxiter - #DIIS iter
   Number of Davidson start vectors     ....     2
   Converg. threshold    (grad. norm)   ....   5.000e-05
   Grad. Scal. Fac. for Micro threshold ....   0.100
   Minimum threshold for Micro iter.    ....   1.000e-02
   NR start threshold (gradient norm)   ....   1.000e-04
   Initial trust radius                 ....   0.400
   Minimum AH scaling param. (alpha)    ....   1.000
   Maximum AH scaling param. (alpha)    .... 1000.000
   Quad. conv. algorithm                .... NR
   White noise on init. David. guess    .... on
   Maximum white noise                  ....   0.010
   Pseudo random numbers                .... off
   Inactive MOs                         .... canonical
   Orbital update algorithm             .... Taylor
   Preconditioner                       .... Diag
   Full preconditioner red. dimension   ....   250
 SOSCF                  CNVSOSCF        .... on
   Start iteration      SOSCFMaxIt      ....   150
   Startup grad/error   SOSCFStart      ....  0.003300
   Hessian update       SOSCFHessUp     .... L-BFGS
 Level Shifting         CNVShift        .... on
   Level shift para.    LevelShift      ....    0.2500
   Turn off err/grad.   ShiftErr        ....    0.0010
 Zerner damping         CNVZerner       .... off
 Static damping         CNVDamp         .... on
   Fraction old density DampFac         ....    0.7000
   Max. Damping (<1)    DampMax         ....    0.9800
   Min. Damping (>=0)   DampMin         ....    0.0000
   Turn off err/grad.   DampErr         ....    0.1000

SCF Procedure:
 Maximum # iterations   MaxIter         ....   125
 SCF integral mode      SCFMode         .... Direct
   Integral package                     .... SHARK and LIBINT hybrid scheme
 Reset frequency        DirectResetFreq ....    20
 Integral Threshold     Thresh          ....  1.000e-12 Eh
 Primitive CutOff       TCut            ....  1.000e-13 Eh

Convergence Tolerance:
 Convergence Check Mode ConvCheckMode   .... Total+1el-Energy
 Convergence forced     ConvForced      .... 0
 Energy Change          TolE            ....  1.000e-06 Eh
 1-El. energy change                    ....  1.000e-03 Eh
 Orbital Gradient       TolG            ....  5.000e-05
 Orbital Rotation angle TolX            ....  5.000e-05
 DIIS Error             TolErr          ....  1.000e-06

------------------------------
INITIAL GUESS: MODEL POTENTIAL
------------------------------
Loading Hartree-Fock densities                     ... done
Calculating cut-offs                               ... done
Initializing the effective Hamiltonian             ... done
Setting up the integral package (SHARK)            ... done
Starting the Coulomb interaction                   ... done (   0.3 sec)
Making the grid                                    ... done (   0.3 sec)
Mapping shells                                     ... done
Starting the XC term evaluation                    ... done (   0.1 sec)
  promolecular density results
     # of electrons  =    158.003402281
     EX              =   -126.957011324
     EC              =      0.206260035
     EX+EC           =   -126.750751289
Transforming the Hamiltonian                       ... done (   0.3 sec)
Diagonalizing the Hamiltonian                      ... done (   0.4 sec)
Back transforming the eigenvectors                 ... done (   0.1 sec)
Now organizing SCF variables                       ... done
                      ------------------
                      INITIAL GUESS DONE (   2.0 sec)
                      ------------------
             **** ENERGY FILE WAS UPDATED (compas3D_hc_c24h14_0pent_2_qz_ri.en.tmp) ****
Finished Guess after  17.4 sec
Maximum memory used throughout the entire GUESS-calculation: 203.1 MB


           ************************************************************
           *        Program running with 104 parallel MPI-processes   *
           *              working on a common directory               *
           ************************************************************

-------------------------------------------------------------------------------------------
                                      ORCA LEAN-SCF
                              memory conserving SCF solver
-------------------------------------------------------------------------------------------

----------------------------------------D-I-I-S--------------------------------------------
Iteration    Energy (Eh)           Delta-E    RMSDP     MaxDP     DIISErr   Damp  Time(sec)
-------------------------------------------------------------------------------------------
               ***  Starting incremental Fock matrix formation  ***
    1    -919.0532087322303596     0.00e+00  6.19e-04  1.46e-01  1.49e-01  0.700  12.8
    2    -919.2328372875736022    -1.80e-01  7.79e-04  1.98e-01  9.25e-02  0.700   9.4
                               ***Turning on AO-DIIS***
    3    -919.3394027433942028    -1.07e-01  3.31e-04  7.35e-02  5.59e-02  0.700   8.4
    4    -919.4060834777164928    -6.67e-02  4.65e-04  4.46e-02  3.88e-02  0.000   8.4
    5    -919.5522208710940504    -1.46e-01  9.70e-05  2.19e-02  3.78e-03  0.000   8.4
                              *** Initializing SOSCF ***
---------------------------------------S-O-S-C-F--------------------------------------
Iteration    Energy (Eh)           Delta-E    RMSDP     MaxDP     MaxGrad    Time(sec)
--------------------------------------------------------------------------------------
    6    -919.5525223332992937    -3.01e-04  3.17e-05  5.49e-03  1.43e-03     9.1
               *** Restarting incremental Fock matrix formation ***
    7    -919.5526031748217974    -8.08e-05  8.28e-05  2.03e-02  6.41e-04    12.5
    8    -919.5526324254078645    -2.93e-05  3.92e-05  6.63e-03  3.09e-04    10.1
    9    -919.5526406828107611    -8.26e-06  4.20e-05  1.00e-02  1.93e-04    13.3
   10    -919.5526436324521455    -2.95e-06  9.41e-06  2.53e-03  3.06e-05     9.7
   11    -919.5526438344545568    -2.02e-07  2.49e-06  5.99e-04  1.53e-05     9.1
                 **** Energy Check signals convergence ****

               *****************************************************
               *                     SUCCESS                       *
               *           SCF CONVERGED AFTER  11 CYCLES          *
               *****************************************************

Recomputing exchange energy using gridx3       ... done (   13.938 sec)
Old exchange energy                            :    -89.430204113 Eh
New exchange energy                            :    -89.430194620 Eh
Exchange energy change after final integration :      0.000009493 Eh
Total energy after final integration           :   -919.552634342 Eh
             **** ENERGY FILE WAS UPDATED (compas3D_hc_c24h14_0pent_2_qz_ri.en.tmp) ****

----------------
TOTAL SCF ENERGY
----------------

Total Energy       :       -919.55263434182848 Eh          -25022.29929 eV

Components:
Nuclear Repulsion  :       1822.99047601414668 Eh           49606.09278 eV
Electronic Energy  :      -2742.54311984860124 Eh          -74628.39233 eV
One Electron Energy:      -4866.57516348905756 Eh         -132426.24262 eV
Two Electron Energy:       2124.03204364045632 Eh           57797.85029 eV

Virial components:
Potential Energy   :      -1836.34570124943957 Eh          -49969.50693 eV
Kinetic Energy     :        916.79306690761098 Eh           24947.20764 eV
Virial Ratio       :          2.00301002214548

DFT components:
N(Alpha)           :       79.000003986482 electrons
N(Beta)            :       79.000003986482 electrons
N(Total)           :      158.000007972964 electrons
E(X)               :      -40.011745086098 Eh       
E(C)               :       -2.351367673194 Eh       
E(XC)              :      -42.363112759292 Eh       

---------------
SCF CONVERGENCE
---------------

  Last Energy change         ...    2.0200e-07  Tolerance :   1.0000e-06
  Last MAX-Density change    ...    5.9878e-04  Tolerance :   1.0000e-05
  Last RMS-Density change    ...    2.4913e-06  Tolerance :   1.0000e-06
  Last DIIS Error            ...    1.4321e-03  Tolerance :   1.0000e-06
  Last Orbital Gradient      ...    1.5305e-05  Tolerance :   5.0000e-05
  Last Orbital Rotation      ...    4.3349e-05  Tolerance :   5.0000e-05


----------------
ORBITAL ENERGIES
----------------

  NO   OCC          E(Eh)            E(eV) 
   0   2.0000     -10.843282      -295.0607 
   1   2.0000     -10.840333      -294.9805 
   2   2.0000     -10.839664      -294.9622 
   3   2.0000     -10.838834      -294.9397 
   4   2.0000     -10.838362      -294.9268 
   5   2.0000     -10.838136      -294.9207 
   6   2.0000     -10.836483      -294.8757 
   7   2.0000     -10.835380      -294.8457 
   8   2.0000     -10.835255      -294.8423 
   9   2.0000     -10.834862      -294.8316 
  10   2.0000     -10.827683      -294.6362 
  11   2.0000     -10.826400      -294.6013 
  12   2.0000     -10.826310      -294.5989 
  13   2.0000     -10.825939      -294.5888 
  14   2.0000     -10.825504      -294.5769 
  15   2.0000     -10.825292      -294.5712 
  16   2.0000     -10.825013      -294.5636 
  17   2.0000     -10.824960      -294.5621 
  18   2.0000     -10.824601      -294.5524 
  19   2.0000     -10.824503      -294.5497 
  20   2.0000     -10.824309      -294.5444 
  21   2.0000     -10.824018      -294.5365 
  22   2.0000     -10.823490      -294.5221 
  23   2.0000     -10.823073      -294.5108 
  24   2.0000      -1.094393       -29.7800 
  25   2.0000      -1.059821       -28.8392 
  26   2.0000      -1.049740       -28.5649 
  27   2.0000      -1.019275       -27.7359 
  28   2.0000      -0.990755       -26.9598 
  29   2.0000      -0.967296       -26.3215 
  30   2.0000      -0.956165       -26.0186 
  31   2.0000      -0.920796       -25.0561 
  32   2.0000      -0.914831       -24.8938 
  33   2.0000      -0.910571       -24.7779 
  34   2.0000      -0.886255       -24.1162 
  35   2.0000      -0.867502       -23.6059 
  36   2.0000      -0.792589       -21.5674 
  37   2.0000      -0.779049       -21.1990 
  38   2.0000      -0.774780       -21.0828 
  39   2.0000      -0.769653       -20.9433 
  40   2.0000      -0.736543       -20.0424 
  41   2.0000      -0.722224       -19.6527 
  42   2.0000      -0.697682       -18.9849 
  43   2.0000      -0.677066       -18.4239 
  44   2.0000      -0.652047       -17.7431 
  45   2.0000      -0.643316       -17.5055 
  46   2.0000      -0.624435       -16.9917 
  47   2.0000      -0.603980       -16.4351 
  48   2.0000      -0.599903       -16.3242 
  49   2.0000      -0.579518       -15.7695 
  50   2.0000      -0.574277       -15.6269 
  51   2.0000      -0.570992       -15.5375 
  52   2.0000      -0.553205       -15.0535 
  53   2.0000      -0.542213       -14.7544 
  54   2.0000      -0.533569       -14.5191 
  55   2.0000      -0.530486       -14.4353 
  56   2.0000      -0.523103       -14.2344 
  57   2.0000      -0.520938       -14.1755 
  58   2.0000      -0.512969       -13.9586 
  59   2.0000      -0.509303       -13.8588 
  60   2.0000      -0.491044       -13.3620 
  61   2.0000      -0.480475       -13.0744 
  62   2.0000      -0.476529       -12.9670 
  63   2.0000      -0.469725       -12.7819 
  64   2.0000      -0.462682       -12.5902 
  65   2.0000      -0.454977       -12.3805 
  66   2.0000      -0.449072       -12.2199 
  67   2.0000      -0.436354       -11.8738 
  68   2.0000      -0.427104       -11.6221 
  69   2.0000      -0.414768       -11.2864 
  70   2.0000      -0.408077       -11.1043 
  71   2.0000      -0.390843       -10.6354 
  72   2.0000      -0.364270        -9.9123 
  73   2.0000      -0.348544        -9.4844 
  74   2.0000      -0.316784        -8.6201 
  75   2.0000      -0.308156        -8.3854 
  76   2.0000      -0.298885        -8.1331 
  77   2.0000      -0.262333        -7.1384 
  78   2.0000      -0.234890        -6.3917 
  79   0.0000      -0.005485        -0.1492 
  80   0.0000       0.017795         0.4842 
  81   0.0000       0.044045         1.1985 
  82   0.0000       0.054004         1.4695 
  83   0.0000       0.069088         1.8800 
  84   0.0000       0.073929         2.0117 
  85   0.0000       0.079182         2.1546 
  86   0.0000       0.080286         2.1847 
  87   0.0000       0.091798         2.4980 
  88   0.0000       0.093190         2.5358 
  89   0.0000       0.099121         2.6972 
*Only the first 10 virtual orbitals were printed.
-------
TIMINGS
-------

Total SCF time: 0 days 0 hours 2 min 22 sec 

Total time                  ....     142.600 sec
Sum of individual times     ....     142.441 sec  ( 99.9%)

SCF preparation             ....      15.631 sec  ( 11.0%)
Fock matrix formation       ....     104.442 sec  ( 73.2%)
  Startup                   ....       1.561 sec  (  1.5% of F)
  Split-RI-J                ....       7.003 sec  (  6.7% of F)
  Chain of spheres X        ....      77.600 sec  ( 74.3% of F)
  XC integration            ....      14.469 sec  ( 13.9% of F)
    XC Preparation          ....       0.000 sec  (  0.0% of XC)
    Basis function eval.    ....       0.921 sec  (  6.4% of XC)
    Density eval.           ....       2.008 sec  ( 13.9% of XC)
    XC-Functional eval.     ....       0.028 sec  (  0.2% of XC)
    XC-Potential eval.      ....       2.180 sec  ( 15.1% of XC)
Diagonalization             ....       0.000 sec  (  0.0%)
Density matrix formation    ....       3.365 sec  (  2.4%)
Total Energy calculation    ....       1.703 sec  (  1.2%)
Population analysis         ....       0.000 sec  (  0.0%)
Orbital Transformation      ....       2.237 sec  (  1.6%)
Orbital Orthonormalization  ....       0.000 sec  (  0.0%)
DIIS solution               ....      10.247 sec  (  7.2%)
SOSCF solution              ....       4.717 sec  (  3.3%)
Finished LeanSCF after 143.6 sec

Maximum memory used throughout the entire LEANSCF-calculation: 348.7 MB


           ************************************************************
           *        Program running with 104 parallel MPI-processes   *
           *              working on a common directory               *
           ************************************************************

------------------------------------------------------------------------------
                                ORCA  MP2 
------------------------------------------------------------------------------


-------------
RI-MP2 ENERGY
-------------
Dimension of the orbital basis            ... 1788
Dimension of the AuxC basis               ... 4168
Memory devoted to MP2                     ... 4096 MB   
Data format for matrix containers         ... DOUBLE
Compression type for matrix containers    ... UNCOMPRESSED
Scaling for aa/bb pairs                   ...   5.710e-02
Scaling for ab pairs                      ...   5.979e-01
Overall scaling of the MP2 energy         ...   1.000e+00

-----------------------
SHARK RI TRANSFORMATION
-----------------------

Number of basis functions                ...   1788
Number of aux functions                  ...   4168
Number of operators                      ...      1
Generation of IJK                        ... NO
Generation of IAK                        ... YES
Generation of ABK                        ... NO
Orbital Range Operator  0:    0-  78 to   79-1787

Aux basis identifier                     ...   AUXC
Contraction scheme used                  ... SEGMENTED
Do orthogonalization                     ... YES
All operator combinations                ... NO
Transpose (ia|K)                         ... NO
Integral generator used                  ... LIBINT
Starting integral generation + trafo... 
Half trafo (segmented) done. Total time =  4.9 sec. integrals=  1.5 sec trafo=  3.0 sec
Integral generation and half transformation done (  4.9 sec)

Reading or making V^(-1/2)          ... done (  0.3 sec)
Sorting IAK integrals               ... done (  8.7 sec)

SHARK RI integral transformation done. Total time = 14.1 sec.

Opening buffers                              ... done

Starting loop over batches of integrals:

Operator 0  - window                       ... (  0- 78)x( 79-1787)
Operator 0  - Memory available             ...  4096 MB
Operator 0  - Memory needed per MO         ...  54.3 MB
Operator 0  - Number of orbitals per batch ... 1
Operator 0  - Number of batches            ... 1

OPERATOR  0   PASS   0:  MOs     0 ...    0 +    1 ...    1 +    2 ...    2 +    3 ...    3
                            +    4 ...    4 +    5 ...    5 +    6 ...    6 +    7 ...    7
                            +    8 ...    8 +    9 ...    9 +   10 ...   10 +   11 ...   11
                            +   12 ...   12 +   13 ...   13 +   14 ...   14 +   15 ...   15
                            +   16 ...   16 +   17 ...   17 +   18 ...   18 +   19 ...   19
                            +   20 ...   20 +   21 ...   21 +   22 ...   22 +   23 ...   23
                            +   24 ...   24 +   25 ...   25 +   26 ...   26 +   27 ...   27
                            +   28 ...   28 +   29 ...   29 +   30 ...   30 +   31 ...   31
                            +   32 ...   32 +   33 ...   33 +   34 ...   34 +   35 ...   35
                            +   36 ...   36 +   37 ...   37 +   38 ...   38 +   39 ...   39
                            +   40 ...   40 +   41 ...   41 +   42 ...   42 +   43 ...   43
                            +   44 ...   44 +   45 ...   45 +   46 ...   46 +   47 ...   47
                            +   48 ...   48 +   49 ...   49 +   50 ...   50 +   51 ...   51
                            +   52 ...   52 +   53 ...   53 +   54 ...   54 +   55 ...   55
                            +   56 ...   56 +   57 ...   57 +   58 ...   58 +   59 ...   59
                            +   60 ...   60 +   61 ...   61 +   62 ...   62 +   63 ...   63
                            +   64 ...   64 +   65 ...   65 +   66 ...   66 +   67 ...   67
                            +   68 ...   68 +   69 ...   69 +   70 ...   70 +   71 ...   71
                            +   72 ...   72 +   73 ...   73 +   74 ...   74 +   75 ...   75
                            +   76 ...   76 +   77 ...   77 +   78 ...   78
  Reading integrals       ... ok
Time spent in pair loops =    38.739 sec

-----------------------------------------------
 RI-MP2 CORRELATION ENERGY:     -2.369906158 Eh
-----------------------------------------------


-------
TIMINGS
-------

Total time                :   55.695 sec
Integral trafo            :   14.315 sec ( 25.7%)
I/O of integrals          :    0.038 sec (  0.1%)
K(i,j) operators          :    0.440 sec (  0.8%)
T(i,j) pair energies      :    0.069 sec (  0.1%)
V**(-1/2)                 :    2.638 sec (  4.7%)


---------------------------------------
MP2 TOTAL ENERGY:     -921.922540500 Eh
---------------------------------------

Maximum memory used throughout the entire MP2-calculation: 403.7 MB


-------------------------------------------------------------------------------
                          DFT DISPERSION CORRECTION                            
                                                                               
                                DFTD4 V3.4.0                                   
-------------------------------------------------------------------------------
The REV-DSD-PBEP86-2021 functional is recognized
A user input s6-coefficient scaling factor has been recognized
A user input a1-coefficient scaling factor has been recognized
A user input s8-coefficient scaling factor has been recognized
A user input a2-coefficient scaling factor has been recognized
A user input s9-coefficient scaling factor has been recognized
Active option DFTDOPT                   ...         5   

-------------------------   ----------------
Dispersion correction           -0.038426896
-------------------------   ----------------


-------------------------   --------------------
FINAL SINGLE POINT ENERGY      -921.960967396015
-------------------------   --------------------



           ************************************************************
           *        Program running with 104 parallel MPI-processes   *
           *              working on a common directory               *
           ************************************************************

------------------------------------------------------------------------------
                              ORCA PROPERTY CALCULATIONS
------------------------------------------------------------------------------

GBWName                                 ... compas3D_hc_c24h14_0pent_2_qz_ri.gbw
Number of atoms                         ...     38
Number of basis functions               ...   1788
Max core memory                         ...   1024 MB

Electric properties:
Dipole moment                           ... YES
Quadrupole moment                       ...  NO
Static polarizability (Dipole/Dipole)   ...  NO
Static polarizability (Dipole/Quad.)    ...  NO
Static polarizability (Quad./Quad.)     ...  NO
Static polarizability (Velocity)        ...  NO

Atomic electric properties:
Dipole moment                           ...  NO
Quadrupole moment                       ...  NO
Static polarizability                   ...  NO

Choice of electric origin               ... Center of mass
Position of electric origin             ...     0.040158    -0.130439    -0.041575

General magnetic properties:
Magnetizability                         ...  NO

EPR properties:
g-Tensor (aka g-matrix)                 ...  NO
Zero-Field splitting spin-orbit         ...  NO
Zero-field splitting spin-spin          ...  NO
Hyperfine couplings                     ...  NO (   0 nuclei)
Quadrupole couplings                    ...  NO (   0 nuclei)
Contact density                         ...  NO (   0 nuclei)

NMR properties:
Chemical shifts                         ...  NO (   0 nuclei)
Spin-rotation constants                 ...  NO (   0 nuclei)
Spin-spin couplings                     ...  NO (   0 nuclei,    0 pairs)

Choice of magnetic origin               ... GIAO
Position of magnetic origin             ...     0.000000     0.000000     0.000000

Properties with geometric perturbations:
SCF Hessian                             ...  NO
IR spectrum                             ...  NO
VCD spectrum                            ...  NO
X-ray spectroscopy properties:
SCF XES/XAS/RIXS spectra                ...  NO


-------------
DIPOLE MOMENT
-------------

Method             : SCF
Type of density    : Electron Density
Multiplicity       :   1
Irrep              :   0
Energy             :  -919.5526343418284796 Eh
Relativity type    : 
Basis              : AO
                                X                 Y                 Z
Electronic contribution:      0.844340336      -2.703755682      -0.843223961
Nuclear contribution   :     -0.827007422       2.688292852       0.854143638
                        -----------------------------------------
Total Dipole Moment    :      0.017332915      -0.015462830       0.010919677
                        -----------------------------------------
Magnitude (a.u.)       :      0.025666484
Magnitude (Debye)      :      0.065239017



--------------------
Rotational spectrum 
--------------------
 
Rotational constants in cm-1:             0.012166             0.008205             0.005007 
Rotational constants in MHz :           364.731635           245.965361           150.101439 

Dipole components along the rotational axes: 
x,y,z [a.u.] :    -0.017707    -0.009969     0.015680 
x,y,z [Debye]:    -0.045007    -0.025338     0.039856 

 

Dipole moment calculation done in   0.2 sec 

Maximum memory used throughout the entire PROP-calculation: 221.5 MB

--------------------------------
SUGGESTED CITATIONS FOR THIS RUN
--------------------------------

Below you find a list of papers that are relevant to this ORCA run
We neither can nor want to force you to cite these papers, but we appreciate if you do
You receive ORCA, which is the product of decades of hard work by many enthusiastic individuals, for free
The only thing we kindly ask in return is that you cite our papers,
We deeply appreciate it, if you show your appreciation for ORCA by not just citing the generic ORCA reference.

Please note that relegating all ORCA citations to the supporting information does *not* help us.
SI sections are not indexed - citations you put there will not count into any citation statistics
But we need these citations in order to attract the funding resources that allow us to do what we are doing

Therefore, if you are a happy ORCA user, please consider citing a few of the papers listed below in the main body of your paper

In addition to the list printed below, the program has created the file compas3D_hc_c24h14_0pent_2_qz_ri.bibtex that contains the list in bibtex format
You can import this file easily into all common literature databanks and citation aid programs


List of essential papers. We consider these as the minimum necessary citations

  1. Neese,F.
     Software update: the ORCA program system, version 5.0
     WIRES Comput. Molec. Sci., 2022 12(1)e1606
     doi.org/10.1002/wcms.1606

List of papers to cite with high priority. The work reported in these papers was absolutely
necessary for this run to complete.
Our perspective: the developers of density functionals and basis sets usually get cited in chemistry papers
Good! But without the algorithms to do something with them, the functionals or basis sets would not do anything.
Hence, in our opinion, the algorithm design and method developments papers are equally worthy of getting cited

  1. Neese,F.
     An improvement of the resolution of the identity approximation for the formation of the Coulomb matrix
     J. Comp. Chem., 2003 24(14)1740-1747
     doi.org/10.1002/jcc.10318
  2. Neese,F.; Wennmohs,F.; Hansen,A.; Becker,U.
     Efficient, approximate and parallel Hartree-Fock and hybrid DFT calculations. A 'chain-of-spheres' algorithm for the Hartree-Fock exchange
     Chem. Phys., 2009 356(1-3)98-109
     doi.org/10.1016/j.chemphys.2008.10.036
  3. Kossmann,S.; Neese,F.
     Efficient Structure Optimization with Second-Order Many-Body Perturbation Theory: The RIJCOSX-MP2 Method
     J. Theo. Comp. Chem., 2010 6 2325-2338
     doi.org/10.1021/ct100199k
  4. Helmich-Paris,B.; de Souza,B.; Neese,F.; Izsák,R.
     An improved chain of spheres for exchange algorithm
     J. Chem. Phys., 2021 155 104109
     doi.org/doi: 10.1063/5.0058766.
  5. Neese,F.
     The SHARK Integral Generation and Digestion System
     J. Comp. Chem., 2022  1-16
     doi.org/10.1002/jcc.26942
  6. Caldeweyher,E.; Bannwarth,C.; Grimme,S.
     Extension of the D3 dispersion coefficient model
     J. Chem. Phys., 2017 147 034112
     doi.org/10.1063/1.4993215
  7. Caldeweyher,E.; Ehlert,S.; Hansen,A.; Neugebauer,H.; Spicher,S.; Bannwarth,C.; Grimme,S.
     A generally applicable atomic-charge dependent London dispersion correction
     J. Chem. Phys., 2019 150 154122
     doi.org/10.1063/1.5090222
  8. Caldeweyher,E.; Mewes,J.; Ehlert,S.; Grimme,S.
     Extension and evaluation of the D4 London-dispersion model for periodic systems
     Phys. Chem. Chem. Phys., 2020 22(16)8499-8512
     doi.org/10.1039/D0CP00502A
  9. Wittmann,L.; Gordiy,I.; Friede,M.; Helmich-Paris,B.; Grimme,S.; Hansen,A.; Bursch,M.
     Extension of the D3 and D4 London Dispersion Corrections to the full Actinides Series
     Phys. Chem. Chem. Phys., 2024 26(32)21379-21394
     doi.org/https://doi.org/10.1039/D4CP01514B 

List of suggested additional citations. These are papers that are important in the 'surrounding' of 
of this run, or papers that preceded the highly important papers. If you like your results we are grateful for a citation.

  1. Izsak,R.; Neese,F.
     An overlap fitted chain of spheres exchange method
     J. Chem. Phys., 2011 135 144105
     doi.org/10.1063/1.3646921
  2. Izsak,R.; Hansen,A.; Neese,F.
     The resolution of identity and chain of spheres approximations for the LPNO-CCSD singles Fock term
     Molec. Phys., 2012 110 2413-2417
     doi.org/10.1080/00268976.2012.687466
  3. Neese,F.
     The ORCA program system
     WIRES Comput. Molec. Sci., 2012 2(1)73-78
     doi.org/10.1002/wcms.81
  4. Izsak,R.; Neese,F.; Klopper,W.
     Robust fitting techniques in the chain of spheres approximation to the Fock exchange: The role of the complementary space
     J. Chem. Phys., 2013 139 
     doi.org/10.1063/1.4819264
  5. Neese,F.
     Software update: the ORCA program system, version 4.0
     WIRES Comput. Molec. Sci., 2018 8(1)1-6
     doi.org/10.1002/wcms.1327
  6. Neese,F.; Wennmohs,F.; Becker,U.; Riplinger,C.
     The ORCA quantum chemistry program package
     J. Chem. Phys., 2020 152 Art. No. L224108
     doi.org/10.1063/5.0004608

List of optional additional citations

  1. Neese,F.
     Approximate second-order SCF convergence for spin unrestricted wavefunctions
     Chem. Phys. Lett., 2000 325(1-3)93-98
     doi.org/10.1016/s0009-2614(00)00662-x

Timings for individual modules:

Sum of individual times          ...      283.540 sec (=   4.726 min)
Startup calculation              ...       30.328 sec (=   0.505 min)  10.7 %
SCF iterations                   ...      163.602 sec (=   2.727 min)  57.7 %
Property calculations            ...       16.654 sec (=   0.278 min)   5.9 %
MP2 module                       ...       72.955 sec (=   1.216 min)  25.7 %
                             ****ORCA TERMINATED NORMALLY****
TOTAL RUN TIME: 0 days 0 hours 5 minutes 10 seconds 427 msec
