
                                 *****************
                                 * O   R   C   A *
                                 *****************

                                            #,                                       
                                            ###                                      
                                            ####                                     
                                            #####                                    
                                            ######                                   
                                           ########,                                 
                                     ,,################,,,,,                         
                               ,,#################################,,                 
                          ,,##########################################,,             
                       ,#########################################, ''#####,          
                    ,#############################################,,   '####,        
                  ,##################################################,,,,####,       
                ,###########''''           ''''###############################       
              ,#####''   ,,,,##########,,,,          '''####'''          '####       
            ,##' ,,,,###########################,,,                        '##       
           ' ,,###''''                  '''############,,,                           
         ,,##''                                '''############,,,,        ,,,,,,###''
      ,#''                                            '''#######################'''  
     '                                                          ''''####''''         
             ,#######,   #######,   ,#######,      ##                                
            ,#'     '#,  ##    ##  ,#'     '#,    #''#        ,####,   ,####,        
            ##       ##  ##   ,#'  ##            #'  '#       #'       #'  '#        
            ##       ##  #######   ##           ,######,      #####,   #    #        
            '#,     ,#'  ##    ##  '#,     ,#' ,#      #,     #,   #   #,  ,#        
             '#######'   ##     ##  '#######'  #'      '#     '####' # '####'        



                #########################################################
                #                        -***-                          #
                #          Department of theory and spectroscopy        #
                #                                                       #
                #                      Frank Neese                      #
                #                                                       #
                #     Directorship, Architecture, Infrastructure        #
                #                    SHARK, DRIVERS                     #
                #        Core code/Algorithms in most modules           #
                #                                                       #
                #        Max Planck Institute fuer Kohlenforschung      #
                #                Kaiser Wilhelm Platz 1                 #
                #                 D-45470 Muelheim/Ruhr                 #
                #                      Germany                          #
                #                                                       #
                #                  All rights reserved                  #
                #                        -***-                          #
                #########################################################


                         Program Version 6.0.1  -  RELEASE   -


 With contributions from (in alphabetic order):
[Max-Planck-Institut fuer Kohlenforschung]                               
  Daniel Aravena         : Magnetic Suceptibility                        
  Michael Atanasov       : Ab Initio Ligand Field Theory (pilot matlab implementation)
  Alexander A. Auer      : GIAO ZORA, VPT2 properties, NMR spectrum      
  Ute Becker             : All parallelization in ORCA, NUMFREQ, NUMCALC 
  Giovanni Bistoni       : ED, misc. LED, open-shell LED, HFLD           
  Martin Brehm           : Molecular dynamics                            
  Dmytro Bykov           : pre 5.0 version of the SCF Hessian            
  Marcos Casanova-Páez   : Triplet and SCS-CIS(D). UHF-(DLPNO)-IP/EA/STEOM-CCSD. UHF-CVS-IP/STEOM-CCSD   
  Vijay G. Chilkuri      : MRCI spin determinant printing, contributions to CSF-ICE 
  Pauline Colinet        : FMM embedding                                 
  Dipayan Datta          : RHF DLPNO-CCSD density                        
  Achintya Kumar Dutta   : EOM-CC, STEOM-CC                              
  Nicolas Foglia         : Exact transition moments, OPA infrastructure, MCD improvements    
  Dmitry Ganyushin       : Spin-Orbit,Spin-Spin,Magnetic field MRCI      
  Miquel Garcia-Rates    : C-PCM and meta-GGA Hessian, CCSD/C-PCM, Gaussian charge scheme 
  Tiago L. C. Gouveia    : GS-ROHF, GS-ROCIS                             
  Yang Guo               : DLPNO-NEVPT2, F12-NEVPT2, CIM, IAO-localization        
  Andreas Hansen         : Spin unrestricted coupled pair/coupled cluster methods 
  Ingolf Harden          : AUTO-CI MPn and infrastructure                
  Benjamin Helmich-Paris : MC-RPA, TRAH-(SCF,CASSCF), AVAS, COSX integrals, SCF dyn. polar. 
  Lee Huntington         : MR-EOM, pCC                                   
  Robert Izsak           : Overlap fitted RIJCOSX, COSX-SCS-MP3, EOM     
  Riya Kayal             : Wick's Theorem for AUTO-CI, AUTO-CI UHF-CCSDT 
  Emily Kempfer          : AUTO-CI, RHF CISDT and CCSDT                  
  Christian Kollmar      : KDIIS, OOCD, Brueckner-CCSD(T), CCSD density, CASPT2, CASPT2-K, improved NEVPT2 
  Axel Koslowski         : Symmetry handling                             
  Simone Kossmann        : meta-GGA functionals, TD-DFT gradient, OOMP2, (MP2 Hessian; deprecated post 5.0) 
  Lucas Lang             : DCDCAS                                        
  Marvin Lechner         : AUTO-CI (C++ implementation), FIC-MRCC        
  Spencer Leger          : CASSCF response                               
  Dagmar Lenk            : GEPOL surface, SMD, ORCA-2-JSON               
  Dimitrios Liakos       : Extrapolation schemes; Compound Job, initial MDCI parallelization 
  Dimitrios Manganas     : Further ROCIS development; embedding schemes. LFT, Crystal Embedding 
  Dimitrios Pantazis     : SARC Basis sets                               
  Anastasios Papadopoulos: AUTO-CI, single reference methods and gradients 
  Taras Petrenko         : pre 6.0 DFT Hessian and TD-DFT gradient, (ASA, deprecated), ECA, 1-Electron XAS/XES, NRVS 
  Peter Pinski           : DLPNO-MP2, DLPNO-MP2 Gradient                 
  Christoph Reimann      : Effective Core Potentials                     
  Marius Retegan         : Local ZFS, SOC                                
  Christoph Riplinger    : Optimizer, TS searches, QM/MM, DLPNO-CCSD(T), (RO)-DLPNO pert. Triples 
  Michael Roemelt        : Original ROCIS implementation                 
  Masaaki Saitow         : Open-shell DLPNO-CCSD energy and density      
  Barbara Sandhoefer     : DKH picture change effects                    
  Kantharuban Sivalingam : CASSCF convergence/infrastructure, NEVPT2 and variants, FIC-MRCI 
  Bernardo de Souza      : ESD, SOC TD-DFT                               
  Georgi L. Stoychev     : AutoAux, RI-MP2 NMR, DLPNO-MP2 response, X2C  
  Van Anh Tran           : RI-MP2 g-tensors                              
  Willem Van den Heuvel  : Paramagnetic NMR                              
  Zikuan Wang            : NOTCH, Electric field optimization            
  Frank Wennmohs         : Technical directorship and infrastructure     
  Hang Xu                : AUTO-CI-Response properties                   
                                                                         
[FACCTs GmbH]                                                            
  Markus Bursch, Miquel Garcia-Rates, Christoph Riplinger, Bernardo de Souza, Georgi L. Stoychev 
                                                                 
  APM, Basis sets (HGBS, AHGBS, def-TZVP (Ac-Lr), def2-XVPD (La-Lu)), CI-OPT, improved COSX, DLPNO-Multilevel,           
  DOCKER, DRACO, updates on ESD, GOAT, IRC, LR-CPCM, MBIS, meta-GGA TD-DFT gradient, ML-optimized integration grids, 
  MM, NACMEs, nearIR, NEB, NEB-TS, NL-DFT gradient (VV10), 2- and 3-layer-ONIOM, interface openCOSMO-RS, QMMM,   
  Crystal-QMMM, SF, symmetry and pop. for TD-DFT, r2SCAN hybrids, SOLVATOR                                   
                                                                         
[Other institutions]                                                     
  V. Asgeirsson          : NEB                                           
  Christoph Bannwarth    : sTDA-DFT, sTD-DFT, PBEh-3c, B97-3c, D3        
  Sebastian Ehlert       : rSCAN, r2SCAN, r2SCAN-3c, D4, dhf basis sets  
  Marvin Friede          : D4 for Fr, Ra, Ac-Lr                          
  Lars Goerigk           : TD-DFT with DH, B97 family of functionals     
  Stefan Grimme          : VdW corrections, initial TS optimization, DFT functionals, gCP, sTDA/sTD-DF 
  Waldemar Hujo          : DFT-NL                                        
  H. Jonsson             : NEB                                           
  Holger Kruse           : gCP                                           
  Marcel Mueller         : wB97X-3c, vDZP basis set                      
  Hagen Neugebauer       : wr2SCAN                                       
  Tobias Risthaus        : range-separated hybrid DFT                    
  Lukas Wittmann         : regularized MP2, r2SCAN double-hybrids, wr2SCAN        
                                                                         
We gratefully acknowledge several colleagues who have allowed us to      
interface, adapt or use parts of their codes:                            
  Ed Valeev, F. Pavosevic, A. Kumar             : LibInt (2-el integral package), F12 methods 
  Garnet Chan, S. Sharma, J. Yang, R. Olivares  : DMRG                   
  Ulf Ekstrom                                   : XCFun DFT Library      
  Mihaly Kallay                                 : mrcc  (arbitrary order and MRCC methods)
  Frank Weinhold                                : gennbo (NPA and NBO analysis)           
  Simon Mueller                                 : openCOSMO-RS                            
  Christopher J. Cramer and Donald G. Truhlar   : smd solvation model                     
  S Lehtola, MJT Oliveira, MAL Marques          : LibXC Library                           
  Liviu Ungur et al                             : ANISO software                          


 Your calculation uses the libint2 library for the computation of 2-el integrals
 For citations please refer to: http://libint.valeyev.net

 Your ORCA version has been built with support for libXC version: 6.2.2
 For citations please refer to: https://libxc.gitlab.io

 This ORCA versions uses:
   CBLAS   interface :  Fast vector & matrix operations
   LAPACKE interface :  Fast linear algebra routines
   SCALAPACK package :  Parallel linear algebra routines
   Shared memory     :  Shared parallel matrices
   BLAS/LAPACK       :  OpenBLAS 0.3.27  USE64BITINT DYNAMIC_ARCH NO_AFFINITY SapphireRapids SINGLE_THREADED
        Core in use  :  SapphireRapids
   Copyright (c) 2011-2014, The OpenBLAS Project


Warning! Weird basis set assignment to AuxJK basis!


***************************************
The coordinates will be read from file: /g/data/kx58/rs2200/dhdft/inputs/compas3x-xyzs/hc_c40h20_0pent_142.xyz
***************************************


Your calculation utilizes the atom-pairwise dispersion correction
based on EEQ partial charges (D4)


================================================================================

----- Orbital basis set information -----
Your calculation utilizes the basis: def2-QZVPP
   F. Weigend and R. Ahlrichs, Phys. Chem. Chem. Phys. 7, 3297 (2005).

----- AuxC basis set information -----
Your calculation utilizes the auxiliary basis: def2-QZVPP/C
  H-La, Hf-Rn : A. Hellweg, C. Hattig, S. Hofener and W. Klopper, Theor. Chem. Acc. 117, 587 (2007).
        Ce-Lu : J. Chmela and M. E. Harding, Mol. Phys. (2018).

----- AuxJK basis set information -----
Your calculation utilizes the auxiliary basis: def2-QZVPP/C
  H-La, Hf-Rn : A. Hellweg, C. Hattig, S. Hofener and W. Klopper, Theor. Chem. Acc. 117, 587 (2007).
        Ce-Lu : J. Chmela and M. E. Harding, Mol. Phys. (2018).

================================================================================
                                        WARNINGS
                       Please study these warnings very carefully!
================================================================================


WARNING: No MP2 level density has been requested!
         To calculate MP2 level properties use
         %mp2 Density relaxed end
         or
         %mp2 Density unrelaxed end
         Otherwise for double-hybrid DFT only the energy is correct!

================================================================================
                                       INPUT FILE
================================================================================
NAME = compas3x_hc_c40h20_0pent_142_qz_riri.inp
|  1> ! RKS revDSD-PBEP86-D4/2021 defgrid3  RIJK NOPOP NoFrozencore NoUseSym
|  2> 
|  3> %basis
|  4> Basis "def2-QZVPP"
|  5> AuxJK "def2-QZVPP/C"
|  6> AuxC "def2-QZVPP/C"
|  7> end
|  8> 
|  9> %method
| 10> ScalHFX 0.69
| 11> ScalDFX 0.31
| 12> ScalDFC 0.4038
| 13> ScalLDAC 0.4038
| 14> 
| 15> D4S6 0.4612
| 16> D4S8 0.0
| 17> D4A1 0.44
| 18> D4A2 3.60
| 19> end
| 20> 
| 21> %mp2
| 22> PS 0.5979
| 23> PT 0.0571
| 24> 
| 25> end
| 26> 
| 27> %pal
| 28> nprocs 104
| 29> end
| 30> 
| 31> *XYZFILE 0 1 /g/data/kx58/rs2200/dhdft/inputs/compas3x-xyzs/hc_c40h20_0pent_142.xyz
| 32> 
| 33>                          ****END OF INPUT****
================================================================================

                       ****************************
                       * Single Point Calculation *
                       ****************************

---------------------------------
CARTESIAN COORDINATES (ANGSTROEM)
---------------------------------
  C      1.052423    0.063232   -0.026215
  C      0.070175    1.038695   -0.292151
  C      0.473072    2.397157   -0.543437
  C      1.840806    2.736515   -0.549817
  C      2.847076    1.751095   -0.349150
  C      2.442498    0.373071   -0.133736
  C      0.652512   -1.265888    0.278008
  C     -0.687573   -1.607342    0.110558
  C     -1.671949   -0.673337   -0.188009
  C     -1.293610    0.688749   -0.342400
  C     -2.290445    1.680463   -0.618810
  C     -1.890073    3.074317   -0.742222
  C     -0.503904    3.393363   -0.739122
  C     -0.101690    4.750543   -0.921357
  C      1.253497    5.067823   -0.935007
  C      2.231233    4.093669   -0.756180
  C      3.343261   -0.665465   -0.093622
  C      2.973081   -1.972577    0.281096
  C      1.640439   -2.247649    0.627879
  C     -3.053718   -1.064065   -0.343579
  C     -4.002523   -0.065602   -0.659685
  C     -3.590534    1.280692   -0.788698
  C     -2.809062    4.100535   -0.864011
  C     -2.410653    5.430284   -1.029478
  C     -1.086080    5.753733   -1.073201
  C      3.604567    4.430097   -0.760295
  C      4.550850    3.470213   -0.548495
  C      4.173872    2.141202   -0.335252
  C      3.943411   -3.009926    0.327189
  C      3.609032   -4.255250    0.742490
  C      2.321198   -4.513855    1.282076
  C      1.344799   -3.483659    1.288600
  C     -3.511316   -2.381194   -0.193062
  C     -4.837605   -2.699815   -0.362520
  C     -5.768334   -1.712634   -0.688305
  C     -5.353952   -0.414705   -0.832409
  C      2.021277   -5.757390    1.863347
  C      0.826788   -5.968117    2.500196
  C     -0.084776   -4.915524    2.621387
  C      0.169955   -3.702378    2.034788
  H     -0.947081   -2.650722    0.155080
  H      1.553189    6.096412   -1.079311
  H      4.385381   -0.499197   -0.318395
  H     -4.358510    1.995823   -1.039310
  H     -3.866918    3.895425   -0.827576
  H     -3.165600    6.197194   -1.125390
  H     -0.766090    6.776246   -1.210979
  H      3.883722    5.460781   -0.923776
  H      5.599978    3.728081   -0.537159
  H      4.952537    1.419471   -0.146661
  H      4.948445   -2.785524   -0.000769
  H      4.331143   -5.059081    0.727110
  H     -2.824363   -3.173205    0.060768
  H     -5.163154   -3.722822   -0.242613
  H     -6.807605   -1.974848   -0.821286
  H     -6.063117    0.363205   -1.078093
  H      2.765435   -6.540252    1.821340
  H      0.604181   -6.926449    2.945756
  H     -0.989622   -5.056438    3.194671
  H     -0.514977   -2.884175    2.197204

----------------------------
CARTESIAN COORDINATES (A.U.)
----------------------------
  NO LB      ZA    FRAG     MASS         X           Y           Z
   0 C     6.0000    0    12.011    1.988791    0.119490   -0.049539
   1 C     6.0000    0    12.011    0.132611    1.962849   -0.552085
   2 C     6.0000    0    12.011    0.893976    4.529969   -1.026947
   3 C     6.0000    0    12.011    3.478620    5.171263   -1.039004
   4 C     6.0000    0    12.011    5.380194    3.309090   -0.659798
   5 C     6.0000    0    12.011    4.615652    0.705003   -0.252724
   6 C     6.0000    0    12.011    1.233068   -2.392182    0.525360
   7 C     6.0000    0    12.011   -1.299325   -3.037436    0.208925
   8 C     6.0000    0    12.011   -3.159525   -1.272423   -0.355286
   9 C     6.0000    0    12.011   -2.444569    1.301548   -0.647042
  10 C     6.0000    0    12.011   -4.328313    3.175616   -1.169381
  11 C     6.0000    0    12.011   -3.571720    5.809617   -1.402596
  12 C     6.0000    0    12.011   -0.952240    6.412527   -1.396739
  13 C     6.0000    0    12.011   -0.192166    8.977225   -1.741112
  14 C     6.0000    0    12.011    2.368766    9.576798   -1.766906
  15 C     6.0000    0    12.011    4.216418    7.735912   -1.428973
  16 C     6.0000    0    12.011    6.317849   -1.257547   -0.176920
  17 C     6.0000    0    12.011    5.618310   -3.727630    0.531195
  18 C     6.0000    0    12.011    3.099981   -4.247441    1.186520
  19 C     6.0000    0    12.011   -5.770691   -2.010792   -0.649270
  20 C     6.0000    0    12.011   -7.563672   -0.123970   -1.246624
  21 C     6.0000    0    12.011   -6.785126    2.420158   -1.490424
  22 C     6.0000    0    12.011   -5.308358    7.748889   -1.632743
  23 C     6.0000    0    12.011   -4.555473   10.261750   -1.945432
  24 C     6.0000    0    12.011   -2.052393   10.872980   -2.028055
  25 C     6.0000    0    12.011    6.811644    8.371669   -1.436748
  26 C     6.0000    0    12.011    8.599860    6.557753   -1.036506
  27 C     6.0000    0    12.011    7.887476    4.046286   -0.633534
  28 C     6.0000    0    12.011    7.451967   -5.687936    0.618297
  29 C     6.0000    0    12.011    6.820082   -8.041257    1.403102
  30 C     6.0000    0    12.011    4.386428   -8.529951    2.422773
  31 C     6.0000    0    12.011    2.541302   -6.583162    2.435101
  32 C     6.0000    0    12.011   -6.635426   -4.499804   -0.364834
  33 C     6.0000    0    12.011   -9.141748   -5.101911   -0.685064
  34 C     6.0000    0    12.011  -10.900572   -3.236409   -1.300707
  35 C     6.0000    0    12.011  -10.117503   -0.783679   -1.573025
  36 C     6.0000    0    12.011    3.819660  -10.879890    3.521215
  37 C     6.0000    0    12.011    1.562402  -11.278107    4.724686
  38 C     6.0000    0    12.011   -0.160203   -9.288994    4.953703
  39 C     6.0000    0    12.011    0.321168   -6.996480    3.845192
  40 H     1.0000    0     1.008   -1.789723   -5.009139    0.293058
  41 H     1.0000    0     1.008    2.935102   11.520549   -2.039602
  42 H     1.0000    0     1.008    8.287169   -0.943346   -0.601680
  43 H     1.0000    0     1.008   -8.236391    3.771559   -1.964011
  44 H     1.0000    0     1.008   -7.307416    7.361286   -1.563892
  45 H     1.0000    0     1.008   -5.982118   11.710999   -2.126680
  46 H     1.0000    0     1.008   -1.447701   12.805249   -2.288419
  47 H     1.0000    0     1.008    7.339170   10.319381   -1.745684
  48 H     1.0000    0     1.008   10.582426    7.045053   -1.015083
  49 H     1.0000    0     1.008    9.358938    2.682412   -0.277150
  50 H     1.0000    0     1.008    9.351206   -5.263877   -0.001452
  51 H     1.0000    0     1.008    8.184674   -9.560278    1.374039
  52 H     1.0000    0     1.008   -5.337272   -5.996488    0.114835
  53 H     1.0000    0     1.008   -9.756947   -7.035115   -0.458472
  54 H     1.0000    0     1.008  -12.864508   -3.731922   -1.552006
  55 H     1.0000    0     1.008  -11.457631    0.686359   -2.037300
  56 H     1.0000    0     1.008    5.225915  -12.359284    3.441834
  57 H     1.0000    0     1.008    1.141737  -13.089092    5.566672
  58 H     1.0000    0     1.008   -1.870115   -9.555283    6.037054
  59 H     1.0000    0     1.008   -0.973166   -5.450300    4.152113

--------------------------------
INTERNAL COORDINATES (ANGSTROEM)
--------------------------------
 C      0   0   0     0.000000000000     0.00000000     0.00000000
 C      1   0   0     1.409632014406     0.00000000     0.00000000
 C      2   1   0     1.439058416457   119.41267397     0.00000000
 C      3   2   1     1.409220656341   119.98987250     1.32182167
 C      4   3   2     1.422637913596   121.26929241     1.81993083
 C      1   2   3     1.428239901336   120.92186441   353.70221790
 C      1   2   3     1.420929623463   119.44350434   177.33988453
 C      7   1   2     1.393002904180   118.31364550     9.31649480
 C      8   7   1     1.389425174215   122.86202842   352.26716096
 C      2   1   3     1.408863360638   120.62126964   178.60190248
 C     10   2   1     1.433031128719   120.55335132   180.28171358
 C     11  10   2     1.455457071414   119.19293513   355.14480897
 C      3   2   1     1.408971954417   119.83909421   183.39985977
 C     13   3   2     1.427207916951   119.64830166   176.87423521
 C     14  13   3     1.391899853929   119.49848669     1.51549104
 C     15  14  13     1.391733908967   121.54625899   359.09382110
 C      6   1   2     1.375333617715   118.12725040   191.19575905
 C     17   6   1     1.409250418168   122.41876801   348.54359540
 C     18  17   6     1.404228706335   119.77822084     0.11617034
 C      9   8   7     1.444353919889   121.27007818   180.51497426
 C     20   9   8     1.413181617663   118.37656335   180.59041365
 C     11  10   2     1.370733997611   118.80543664   173.69973540
 C     12  11  10     1.382930961823   122.36563379   187.12572207
 C     23  12  11     1.397977791276   121.79525012   182.31115365
 C     24  23  12     1.364193798667   120.39998411   359.88199857
 C     16  15  14     1.413947498866   121.02639429   180.56295695
 C     26  16  15     1.364436367332   120.38273621   178.25948447
 C      5   4   3     1.383027562724   118.98663222   181.41083921
 C     18  17   6     1.421181882188   120.41729386   180.94811369
 C     29  18  17     1.354664556535   120.82505419   177.08042317
 C     30  29  18     1.420051951882   120.51433034   352.89699239
 C     31  30  29     1.419401406316   119.56549084     4.94098589
 C     20   9   8     1.402454408323   123.68648646     0.86847335
 C     33  20   9     1.374509670754   121.28591459   180.50050422
 C     34  33  20     1.395320839947   120.55850774   359.87315917
 C     35  34  33     1.370072180718   119.54130862   359.64015416
 C     31  30  29     1.405064294699   120.79389608   187.81288477
 C     37  31  30     1.369959221332   120.96852478   173.58601061
 C     38  37  31     1.397707894713   119.54568849   357.37559402
 C     39  38  37     1.371389735585   120.52796511     4.20546818
 H      8   7   1     1.076089634736   117.69036870   168.27877145
 H     15  14  13     1.081033738043   119.21664890   179.63488438
 H     17   6   1     1.078972578351   120.67271464   170.74925059
 H     22  11  10     1.078890727836   120.70436981   182.61530668
 H     23  12  11     1.078172776798   120.52109796     2.68528608
 H     24  23  12     1.080414408643   119.11435182   179.68514809
 H     25  24  23     1.080235320660   121.07341452   179.35447706
 H     26  16  15     1.080261397225   118.58407192   358.89340712
 H     27  26  16     1.080414473066   120.47560865   180.88556464
 H     28   5   4     1.078322867574   120.37879813   177.60444161
 H     29  18  17     1.080743402431   118.26384246   355.59215912
 H     30  29  18     1.080659734457   120.96366767   176.61004800
 H     33  20   9     1.078710356748   120.46539341     0.52331899
 H     34  33  20     1.080233291451   119.77789029   179.87787858
 H     35  34  33     1.080057290344   119.92260789   179.86080253
 H     36  35  34     1.080934797982   120.48058718   180.40836257
 H     37  31  30     1.080929251519   118.55208733   355.20995480
 H     38  37  31     1.080035814700   120.52902857   180.08580705
 H     39  38  37     1.080397865576   119.60369362   185.12745780
 H     40  39  38     1.079336312084   119.23233459   184.12254718

---------------------------
INTERNAL COORDINATES (A.U.)
---------------------------
 C      0   0   0     0.000000000000     0.00000000     0.00000000
 C      1   0   0     2.663818456836     0.00000000     0.00000000
 C      2   1   0     2.719426297817   119.41267397     0.00000000
 C      3   2   1     2.663041102749   119.98987250     1.32182167
 C      4   3   2     2.688396044430   121.26929241     1.81993083
 C      1   2   3     2.698982267063   120.92186441   353.70221790
 C      1   2   3     2.685167843922   119.44350434   177.33988453
 C      7   1   2     2.632393992656   118.31364550     9.31649480
 C      8   7   1     2.625633062842   122.86202842   352.26716096
 C      2   1   3     2.662365911722   120.62126964   178.60190248
 C     10   2   1     2.708036374664   120.55335132   180.28171358
 C     11  10   2     2.750415264651   119.19293513   355.14480897
 C      3   2   1     2.662571124224   119.83909421   183.39985977
 C     13   3   2     2.697032099201   119.64830166   176.87423521
 C     14  13   3     2.630309529770   119.49848669     1.51549104
 C     15  14  13     2.629995939240   121.54625899   359.09382110
 C      6   1   2     2.599003880257   118.12725040   191.19575905
 C     17   6   1     2.663097344452   122.41876801   348.54359540
 C     18  17   6     2.653607684364   119.77822084     0.11617034
 C      9   8   7     2.729433349046   121.27007818   180.51497426
 C     20   9   8     2.670526234875   118.37656335   180.59041365
 C     11  10   2     2.590311857941   118.80543664   173.69973540
 C     12  11  10     2.613360779965   122.36563379   187.12572207
 C     23  12  11     2.641795166815   121.79525012   182.31115365
 C     24  23  12     2.577952673074   120.39998411   359.88199857
 C     16  15  14     2.671973540599   121.02639429   180.56295695
 C     26  16  15     2.578411061419   120.38273621   178.25948447
 C      5   4   3     2.613543329213   118.98663222   181.41083921
 C     18  17   6     2.685644543825   120.41729386   180.94811369
 C     29  18  17     2.559945015182   120.82505419   177.08042317
 C     30  29  18     2.683509284998   120.51433034   352.89699239
 C     31  30  29     2.682279932040   119.56549084     4.94098589
 C     20   9   8     2.650254747042   123.68648646     0.86847335
 C     33  20   9     2.597446846151   121.28591459   180.50050422
 C     34  33  20     2.636774256452   120.55850774   359.87315917
 C     35  34  33     2.589061205262   119.54130862   359.64015416
 C     31  30  29     2.655186717533   120.79389608   187.81288477
 C     37  31  30     2.588847742958   120.96852478   173.58601061
 C     38  37  31     2.641285136227   119.54568849   357.37559402
 C     39  38  37     2.591551023126   120.52796511     4.20546818
 H      8   7   1     2.033514705202   117.69036870   168.27877145
 H     15  14  13     2.042857706431   119.21664890   179.63488438
 H     17   6   1     2.038962679093   120.67271464   170.74925059
 H     22  11  10     2.038808004037   120.70436981   182.61530668
 H     23  12  11     2.037451273198   120.52109796     2.68528608
 H     24  23  12     2.041687343478   119.11435182   179.68514809
 H     25  24  23     2.041348916237   121.07341452   179.35447706
 H     26  16  15     2.041398193803   118.58407192   358.89340712
 H     27  26  16     2.041687465220   120.47560865   180.88556464
 H     28   5   4     2.037734903660   120.37879813   177.60444161
 H     29  18  17     2.042309051636   118.26384246   355.59215912
 H     30  29  18     2.042150942080   120.96366767   176.61004800
 H     33  20   9     2.038467152077   120.46539341     0.52331899
 H     34  33  20     2.041345081586   119.77789029   179.87787858
 H     35  34  33     2.041012487695   119.92260789   179.86080253
 H     36  35  34     2.042670736811   120.48058718   180.40836257
 H     37  31  30     2.042660255516   118.55208733   355.20995480
 H     38  37  31     2.040971904609   120.52902857   180.08580705
 H     39  38  37     2.041656081612   119.60369362   185.12745780
 H     40  39  38     2.039650036235   119.23233459   184.12254718

---------------------
BASIS SET INFORMATION
---------------------
There are 2 groups of distinct atoms

 Group   1 Type C   : 15s8p3d2f1g contracted to 7s4p3d2f1g pattern {8211111/5111/111/11/1}
 Group   2 Type H   : 7s3p2d1f contracted to 4s3p2d1f pattern {4111/111/11/1}

Atom   0C    basis set group =>   1
Atom   1C    basis set group =>   1
Atom   2C    basis set group =>   1
Atom   3C    basis set group =>   1
Atom   4C    basis set group =>   1
Atom   5C    basis set group =>   1
Atom   6C    basis set group =>   1
Atom   7C    basis set group =>   1
Atom   8C    basis set group =>   1
Atom   9C    basis set group =>   1
Atom  10C    basis set group =>   1
Atom  11C    basis set group =>   1
Atom  12C    basis set group =>   1
Atom  13C    basis set group =>   1
Atom  14C    basis set group =>   1
Atom  15C    basis set group =>   1
Atom  16C    basis set group =>   1
Atom  17C    basis set group =>   1
Atom  18C    basis set group =>   1
Atom  19C    basis set group =>   1
Atom  20C    basis set group =>   1
Atom  21C    basis set group =>   1
Atom  22C    basis set group =>   1
Atom  23C    basis set group =>   1
Atom  24C    basis set group =>   1
Atom  25C    basis set group =>   1
Atom  26C    basis set group =>   1
Atom  27C    basis set group =>   1
Atom  28C    basis set group =>   1
Atom  29C    basis set group =>   1
Atom  30C    basis set group =>   1
Atom  31C    basis set group =>   1
Atom  32C    basis set group =>   1
Atom  33C    basis set group =>   1
Atom  34C    basis set group =>   1
Atom  35C    basis set group =>   1
Atom  36C    basis set group =>   1
Atom  37C    basis set group =>   1
Atom  38C    basis set group =>   1
Atom  39C    basis set group =>   1
Atom  40H    basis set group =>   2
Atom  41H    basis set group =>   2
Atom  42H    basis set group =>   2
Atom  43H    basis set group =>   2
Atom  44H    basis set group =>   2
Atom  45H    basis set group =>   2
Atom  46H    basis set group =>   2
Atom  47H    basis set group =>   2
Atom  48H    basis set group =>   2
Atom  49H    basis set group =>   2
Atom  50H    basis set group =>   2
Atom  51H    basis set group =>   2
Atom  52H    basis set group =>   2
Atom  53H    basis set group =>   2
Atom  54H    basis set group =>   2
Atom  55H    basis set group =>   2
Atom  56H    basis set group =>   2
Atom  57H    basis set group =>   2
Atom  58H    basis set group =>   2
Atom  59H    basis set group =>   2
---------------------------------
AUXILIARY/C BASIS SET INFORMATION
---------------------------------
There are 2 groups of distinct atoms

 Group   1 Type C   : 9s8p7d5f3g1h contracted to 9s8p7d5f3g1h pattern {111111111/11111111/1111111/11111/111/1}
 Group   2 Type H   : 6s4p3d2f1g contracted to 6s4p3d2f1g pattern {111111/1111/111/11/1}

Atom   0C    basis set group =>   1
Atom   1C    basis set group =>   1
Atom   2C    basis set group =>   1
Atom   3C    basis set group =>   1
Atom   4C    basis set group =>   1
Atom   5C    basis set group =>   1
Atom   6C    basis set group =>   1
Atom   7C    basis set group =>   1
Atom   8C    basis set group =>   1
Atom   9C    basis set group =>   1
Atom  10C    basis set group =>   1
Atom  11C    basis set group =>   1
Atom  12C    basis set group =>   1
Atom  13C    basis set group =>   1
Atom  14C    basis set group =>   1
Atom  15C    basis set group =>   1
Atom  16C    basis set group =>   1
Atom  17C    basis set group =>   1
Atom  18C    basis set group =>   1
Atom  19C    basis set group =>   1
Atom  20C    basis set group =>   1
Atom  21C    basis set group =>   1
Atom  22C    basis set group =>   1
Atom  23C    basis set group =>   1
Atom  24C    basis set group =>   1
Atom  25C    basis set group =>   1
Atom  26C    basis set group =>   1
Atom  27C    basis set group =>   1
Atom  28C    basis set group =>   1
Atom  29C    basis set group =>   1
Atom  30C    basis set group =>   1
Atom  31C    basis set group =>   1
Atom  32C    basis set group =>   1
Atom  33C    basis set group =>   1
Atom  34C    basis set group =>   1
Atom  35C    basis set group =>   1
Atom  36C    basis set group =>   1
Atom  37C    basis set group =>   1
Atom  38C    basis set group =>   1
Atom  39C    basis set group =>   1
Atom  40H    basis set group =>   2
Atom  41H    basis set group =>   2
Atom  42H    basis set group =>   2
Atom  43H    basis set group =>   2
Atom  44H    basis set group =>   2
Atom  45H    basis set group =>   2
Atom  46H    basis set group =>   2
Atom  47H    basis set group =>   2
Atom  48H    basis set group =>   2
Atom  49H    basis set group =>   2
Atom  50H    basis set group =>   2
Atom  51H    basis set group =>   2
Atom  52H    basis set group =>   2
Atom  53H    basis set group =>   2
Atom  54H    basis set group =>   2
Atom  55H    basis set group =>   2
Atom  56H    basis set group =>   2
Atom  57H    basis set group =>   2
Atom  58H    basis set group =>   2
Atom  59H    basis set group =>   2
----------------------------------
AUXILIARY/JK BASIS SET INFORMATION
----------------------------------
There are 2 groups of distinct atoms

 Group   1 Type C   : 9s8p7d5f3g1h contracted to 9s8p7d5f3g1h pattern {111111111/11111111/1111111/11111/111/1}
 Group   2 Type H   : 6s4p3d2f1g contracted to 6s4p3d2f1g pattern {111111/1111/111/11/1}

Atom   0C    basis set group =>   1
Atom   1C    basis set group =>   1
Atom   2C    basis set group =>   1
Atom   3C    basis set group =>   1
Atom   4C    basis set group =>   1
Atom   5C    basis set group =>   1
Atom   6C    basis set group =>   1
Atom   7C    basis set group =>   1
Atom   8C    basis set group =>   1
Atom   9C    basis set group =>   1
Atom  10C    basis set group =>   1
Atom  11C    basis set group =>   1
Atom  12C    basis set group =>   1
Atom  13C    basis set group =>   1
Atom  14C    basis set group =>   1
Atom  15C    basis set group =>   1
Atom  16C    basis set group =>   1
Atom  17C    basis set group =>   1
Atom  18C    basis set group =>   1
Atom  19C    basis set group =>   1
Atom  20C    basis set group =>   1
Atom  21C    basis set group =>   1
Atom  22C    basis set group =>   1
Atom  23C    basis set group =>   1
Atom  24C    basis set group =>   1
Atom  25C    basis set group =>   1
Atom  26C    basis set group =>   1
Atom  27C    basis set group =>   1
Atom  28C    basis set group =>   1
Atom  29C    basis set group =>   1
Atom  30C    basis set group =>   1
Atom  31C    basis set group =>   1
Atom  32C    basis set group =>   1
Atom  33C    basis set group =>   1
Atom  34C    basis set group =>   1
Atom  35C    basis set group =>   1
Atom  36C    basis set group =>   1
Atom  37C    basis set group =>   1
Atom  38C    basis set group =>   1
Atom  39C    basis set group =>   1
Atom  40H    basis set group =>   2
Atom  41H    basis set group =>   2
Atom  42H    basis set group =>   2
Atom  43H    basis set group =>   2
Atom  44H    basis set group =>   2
Atom  45H    basis set group =>   2
Atom  46H    basis set group =>   2
Atom  47H    basis set group =>   2
Atom  48H    basis set group =>   2
Atom  49H    basis set group =>   2
Atom  50H    basis set group =>   2
Atom  51H    basis set group =>   2
Atom  52H    basis set group =>   2
Atom  53H    basis set group =>   2
Atom  54H    basis set group =>   2
Atom  55H    basis set group =>   2
Atom  56H    basis set group =>   2
Atom  57H    basis set group =>   2
Atom  58H    basis set group =>   2
Atom  59H    basis set group =>   2


           ************************************************************
           *        Program running with 104 parallel MPI-processes   *
           *              working on a common directory               *
           ************************************************************
------------------------------------------------------------------------------
                             ORCA STARTUP CALCULATIONS
                           -- RI-GTO INTEGRALS CHOSEN --
------------------------------------------------------------------------------
------------------------------------------------------------------------------
                   ___                                                        
                  /   \      - P O W E R E D   B Y -                         
                 /     \                                                     
                 |  |  |   _    _      __       _____    __    __             
                 |  |  |  | |  | |    /  \     |  _  \  |  |  /  |          
                  \  \/   | |  | |   /    \    | | | |  |  | /  /          
                 / \  \   | |__| |  /  /\  \   | |_| |  |  |/  /          
                |  |  |   |  __  | /  /__\  \  |    /   |      \           
                |  |  |   | |  | | |   __   |  |    \   |  |\   \          
                \     /   | |  | | |  |  |  |  | |\  \  |  | \   \       
                 \___/    |_|  |_| |__|  |__|  |_| \__\ |__|  \__/        
                                                                              
                      - O R C A' S   B I G   F R I E N D -                    
                                      &                                       
                       - I N T E G R A L  F E E D E R -                       
                                                                              
 v1 FN, 2020, v2 2021, v3 2022-2024                                           
------------------------------------------------------------------------------


----------------------
SHARK INTEGRAL PACKAGE
----------------------

Number of atoms                             ...     60
Number of basis functions                   ...   2880
Number of shells                            ...    880
Maximum angular momentum                    ...      4
Integral batch strategy                     ... SHARK/LIBINT Hybrid
RI-J (if used) integral strategy            ... SPLIT-RIJ (Revised 2003 algorithm where possible)
Printlevel                                  ...      1
Contraction scheme used                     ... SEGMENTED contraction
Prescreening option                         ... SCHWARTZ
   Thresh                                   ... 1.000e-10
   Tcut                                     ... 1.000e-11
   Tpresel                                  ... 1.000e-11 
Coulomb Range Separation                    ... NOT USED
Exchange Range Separation                   ... NOT USED
Multipole approximations                    ... NOT USED
Finite Nucleus Model                        ... NOT USED
CABS basis                                  ... NOT available
Auxiliary Coulomb fitting basis             ... NOT available
Auxiliary J/K fitting basis                 ... AVAILABLE
   # of basis functions in Aux-JK           ...   6760
   # of shells in Aux-JK                    ...   1640
   Maximum angular momentum in Aux-JK       ...      5
Auxiliary Correlation fitting basis         ... AVAILABLE
   # of basis functions in Aux-C            ...   6760
   # of shells in Aux-C                     ...   1640
   Maximum angular momentum in Aux-C        ...      5
Auxiliary 'external' fitting basis          ... NOT available

Checking pre-screening integrals            ... done (  0.0 sec) Dimension = 880
Check shell pair data                       ... done (  0.0 sec)
Shell pair information
Shell pair cut-off parameter TPreSel        ...   1.0e-11
Total number of shell pairs                 ...    387640
Shell pairs after pre-screening             ...    183838
Total number of primitive shell pairs       ...   1010590
Primitive shell pairs kept                  ...    316973
          la=0 lb=0:  27436 shell pairs
          la=1 lb=0:  42707 shell pairs
          la=1 lb=1:  15377 shell pairs
          la=2 lb=0:  24339 shell pairs
          la=2 lb=1:  19212 shell pairs
          la=2 lb=2:   5723 shell pairs
          la=3 lb=0:  14396 shell pairs
          la=3 lb=1:  11440 shell pairs
          la=3 lb=2:   6449 shell pairs
          la=3 lb=3:   1912 shell pairs
          la=4 lb=0:   5760 shell pairs
          la=4 lb=1:   4646 shell pairs
          la=4 lb=2:   2622 shell pairs
          la=4 lb=3:   1491 shell pairs
          la=4 lb=4:    328 shell pairs

Calculating one electron integrals          ... done (  1.2 sec)
Calculating RI/JK V-Matrix + Cholesky decomp... done (  1.9 sec)
Calculating RI/C V-Matrix + Cholesky decomp.... done (  1.7 sec)
Calculating Nuclear repulsion               ... done (  0.0 sec) ENN=   4012.684540454896 Eh

Diagonalization of the overlap matrix:
Smallest eigenvalue                        ... 9.143e-08
Time for diagonalization                   ...    1.357 sec
Threshold for overlap eigenvalues          ... 1.000e-07
Number of eigenvalues below threshold      ... 1
Smallest eigenvalue above threshold        ... 1.472e-07

IMPORTANT:
Smallest eigenvalue of S below the DiffSThresh (1.000e-06) while
Thresh>1e-12 and/or TCut>1e-13! In order to avoid SCF convergence issues,
Thresh will be set to at least 1e-12 and TCut to at least 1e-13.
This can be turned off by adding %SCF DiffSThresh -1 END to the input.

Time for construction of square roots      ...    0.884 sec
Total time needed                          ...    2.339 sec

-------------------
DFT GRID GENERATION
-------------------

General Integration Accuracy     IntAcc      ... 4.959
Radial Grid Type                 RadialGrid  ... OptM3 with GC (2021)
Angular Grid (max. ang.)         AngularGrid ... 6 (Lebedev-590)
Angular grid pruning method      GridPruning ... 4 (adaptive)
Weight generation scheme         WeightScheme... mBecke (2022)
Basis function cutoff            BFCut       ... 1.0000e-10
Integration weight cutoff        WCut        ... 1.0000e-14
Partially contracted basis set               ... off
Rotationally invariant grid construction     ... off
Angular grids for H and He will be reduced by one unit
Diffuse basis detected: some atoms will have their outermost
                        angular grid increased by 1.

Total number of grid points                  ...   746011
Total number of batches                      ...    11684
Average number of points per batch           ...       63
Average number of grid points per atom       ...    12434
Initializing property integral containers    ... done (  0.0 sec)

SHARK setup successfully completed in  17.8 seconds

Maximum memory used throughout the entire STARTUP-calculation: 375.4 MB


           ************************************************************
           *        Program running with 104 parallel MPI-processes   *
           *              working on a common directory               *
           ************************************************************
-------------------------------------------------------------------------------
                                 ORCA GUESS
                   Start orbitals & Density for SCF / CASSCF
-------------------------------------------------------------------------------

------------
SCF SETTINGS
------------
Hamiltonian:
 Density Functional     Method          .... DFT(GTOs)
 Exchange Functional    Exchange        .... PBE
   PBE kappa parameter   XKappa         ....  0.804000
   PBE mue parameter    XMuePBE         ....  0.219520
 Correlation Functional Correlation     .... P86
 LDA part of GGA corr.  LDAOpt          .... VWN-5
 Gradients option       PostSCFGGA      .... off
 Hybrid DFT is turned on
   Fraction HF Exchange ScalHFX         ....  0.690000
   Scaling of DF-GGA-X  ScalDFX         ....  0.310000
   Scaling of DF-GGA-C  ScalDFC         ....  0.403800
   Scaling of DF-LDA-C  ScalLDAC        ....  0.403800
   Perturbative correction              ....  1.000000
 RI-approximation to the Coulomb term is turned on
   Number of AuxJK basis functions      .... 6760
   RI-JK (J+K treated both via RI)      .... on


General Settings:
 Integral files         IntName         .... compas3x_hc_c40h20_0pent_142_qz_riri
 Hartree-Fock type      HFTyp           .... RHF
 Total Charge           Charge          ....    0
 Multiplicity           Mult            ....    1
 Number of Electrons    NEL             ....  260
 Basis Dimension        Dim             .... 2880
 Nuclear Repulsion      ENuc            ....   4012.6845404549 Eh

Convergence Acceleration:
 AO-DIIS                CNVDIIS         .... on
   Start iteration      DIISMaxIt       ....    12
   Startup error        DIISStart       ....  0.200000
   # of expansion vecs  DIISMaxEq       ....     5
   Bias factor          DIISBfac        ....   1.050
   Max. coefficient     DIISMaxC        ....  10.000
 MO-DIIS                CNVKDIIS        .... off
 Trust-Rad. Augm. Hess. CNVTRAH         .... auto
   Auto Start mean grad. ratio tolernc. ....  1.125000
   Auto Start start iteration           ....    50
   Auto Start num. interpolation iter.  ....    10
   Max. Number of Micro iterations      ....    24
   Max. Number of Macro iterations      .... Maxiter - #DIIS iter
   Number of Davidson start vectors     ....     2
   Converg. threshold    (grad. norm)   ....   5.000e-05
   Grad. Scal. Fac. for Micro threshold ....   0.100
   Minimum threshold for Micro iter.    ....   1.000e-02
   NR start threshold (gradient norm)   ....   1.000e-04
   Initial trust radius                 ....   0.400
   Minimum AH scaling param. (alpha)    ....   1.000
   Maximum AH scaling param. (alpha)    .... 1000.000
   Quad. conv. algorithm                .... NR
   White noise on init. David. guess    .... on
   Maximum white noise                  ....   0.010
   Pseudo random numbers                .... off
   Inactive MOs                         .... canonical
   Orbital update algorithm             .... Taylor
   Preconditioner                       .... Diag
   Full preconditioner red. dimension   ....   250
 SOSCF                  CNVSOSCF        .... on
   Start iteration      SOSCFMaxIt      ....   150
   Startup grad/error   SOSCFStart      ....  0.003300
   Hessian update       SOSCFHessUp     .... L-BFGS
 Level Shifting         CNVShift        .... on
   Level shift para.    LevelShift      ....    0.2500
   Turn off err/grad.   ShiftErr        ....    0.0010
 Zerner damping         CNVZerner       .... off
 Static damping         CNVDamp         .... on
   Fraction old density DampFac         ....    0.7000
   Max. Damping (<1)    DampMax         ....    0.9800
   Min. Damping (>=0)   DampMin         ....    0.0000
   Turn off err/grad.   DampErr         ....    0.1000

SCF Procedure:
 Maximum # iterations   MaxIter         ....   125
 SCF integral mode      SCFMode         .... Direct
   Integral package                     .... SHARK and LIBINT hybrid scheme
 Reset frequency        DirectResetFreq ....    20
 Integral Threshold     Thresh          ....  1.000e-12 Eh
 Primitive CutOff       TCut            ....  1.000e-13 Eh

Convergence Tolerance:
 Convergence Check Mode ConvCheckMode   .... Total+1el-Energy
 Convergence forced     ConvForced      .... 0
 Energy Change          TolE            ....  1.000e-06 Eh
 1-El. energy change                    ....  1.000e-03 Eh
 Orbital Gradient       TolG            ....  5.000e-05
 Orbital Rotation angle TolX            ....  5.000e-05
 DIIS Error             TolErr          ....  1.000e-06

------------------------------
INITIAL GUESS: MODEL POTENTIAL
------------------------------
Loading Hartree-Fock densities                     ... done
Calculating cut-offs                               ... done
Initializing the effective Hamiltonian             ... done
Setting up the integral package (SHARK)            ... done
Starting the Coulomb interaction                   ... done (   0.8 sec)
Making the grid                                    ... done (   0.6 sec)
Mapping shells                                     ... done
Starting the XC term evaluation                    ... done (   0.2 sec)
  promolecular density results
     # of electrons  =    260.007324431
     EX              =   -210.833233417
     EC              =      0.305561078
     EX+EC           =   -210.527672339
Transforming the Hamiltonian                       ... done (   0.7 sec)
Diagonalizing the Hamiltonian                      ... done (   0.9 sec)
Back transforming the eigenvectors                 ... done (   0.4 sec)
Now organizing SCF variables                       ... done
                      ------------------
                      INITIAL GUESS DONE (   4.8 sec)
                      ------------------
             **** ENERGY FILE WAS UPDATED (compas3x_hc_c40h20_0pent_142_qz_riri.en.tmp) ****
Finished Guess after  23.7 sec
Maximum memory used throughout the entire GUESS-calculation: 428.5 MB


           ************************************************************
           *        Program running with 104 parallel MPI-processes   *
           *              working on a common directory               *
           ************************************************************

-------------------------------------------------------------------------------------------
                                      ORCA LEAN-SCF
                              memory conserving SCF solver
-------------------------------------------------------------------------------------------


Warning (ORCA_SCF): Not enough memory available!
                    Memory available for SCF calculation:       1024.0 MB
                    Memory needed (estimated)           :       1433.1 MB


----------------------------------------D-I-I-S--------------------------------------------
Iteration    Energy (Eh)           Delta-E    RMSDP     MaxDP     DIISErr   Damp  Time(sec)
-------------------------------------------------------------------------------------------
    1    -1529.8352164277657721     0.00e+00  3.28e-04  5.89e-02  1.50e-01  0.700  55.1
    2    -1529.5690796156977740     2.66e-01  3.81e-04  8.37e-02  1.32e-01  0.700  58.3
                               ***Turning on AO-DIIS***
    3    -1529.7406787277350304    -1.72e-01  2.38e-04  2.37e-02  7.78e-02  0.700  55.8
    4    -1530.0700486583946258    -3.29e-01  8.69e-04  2.65e-01  4.07e-02  0.000  55.6
    5    -1530.6092160969028555    -5.39e-01  1.81e-04  4.65e-02  3.63e-02  0.000  56.0
    6    -1530.6320279520705299    -2.28e-02  8.47e-05  1.75e-02  1.61e-02  0.000  55.3
    7    -1530.6376465968842240    -5.62e-03  4.99e-05  1.64e-02  5.25e-03  0.000  57.6
                              *** Initializing SOSCF ***
---------------------------------------S-O-S-C-F--------------------------------------
Iteration    Energy (Eh)           Delta-E    RMSDP     MaxDP     MaxGrad    Time(sec)
--------------------------------------------------------------------------------------
    8    -1530.6383019317863727    -6.55e-04  3.68e-05  1.25e-02  1.18e-03    61.4
    9    -1530.6383623702959085    -6.04e-05  1.81e-05  5.76e-03  2.79e-04    54.0
   10    -1530.6383743153728574    -1.19e-05  1.86e-05  6.29e-03  2.23e-04    54.7
   11    -1530.6383768587356826    -2.54e-06  1.01e-05  3.08e-03  1.33e-04    54.7
   12    -1530.6383783003329881    -1.44e-06  3.88e-06  1.25e-03  2.10e-05    54.4
   13    -1530.6383783652327111    -6.49e-08  7.99e-07  2.41e-04  1.86e-05    54.5
                 **** Energy Check signals convergence ****

               *****************************************************
               *                     SUCCESS                       *
               *           SCF CONVERGED AFTER  13 CYCLES          *
               *****************************************************

             **** ENERGY FILE WAS UPDATED (compas3x_hc_c40h20_0pent_142_qz_riri.en.tmp) ****

----------------
TOTAL SCF ENERGY
----------------

Total Energy       :      -1530.63837836523271 Eh          -41650.78776 eV

Components:
Nuclear Repulsion  :       4012.68454045489580 Eh          109190.69749 eV
Electronic Energy  :      -5543.32291882012851 Eh         -150841.48525 eV
One Electron Energy:     -10057.23098669037972 Eh         -273671.16832 eV
Two Electron Energy:       4513.90806787025122 Eh          122829.68307 eV

Virial components:
Potential Energy   :      -3057.99163137770029 Eh          -83212.18272 eV
Kinetic Energy     :       1527.35325301246735 Eh           41561.39495 eV
Virial Ratio       :          2.00215086152878

DFT components:
N(Alpha)           :      129.999996074499 electrons
N(Beta)            :      129.999996074499 electrons
N(Total)           :      259.999992148998 electrons
E(X)               :      -66.435307586351 Eh       
E(C)               :       -3.897453318217 Eh       
E(XC)              :      -70.332760904569 Eh       

---------------
SCF CONVERGENCE
---------------

  Last Energy change         ...    6.4900e-08  Tolerance :   1.0000e-06
  Last MAX-Density change    ...    2.4124e-04  Tolerance :   1.0000e-05
  Last RMS-Density change    ...    7.9935e-07  Tolerance :   1.0000e-06
  Last DIIS Error            ...    1.1767e-03  Tolerance :   1.0000e-06
  Last Orbital Gradient      ...    1.8603e-05  Tolerance :   5.0000e-05
  Last Orbital Rotation      ...    6.7455e-05  Tolerance :   5.0000e-05


----------------
ORBITAL ENERGIES
----------------

  NO   OCC          E(Eh)            E(eV) 
   0   2.0000     -10.837355      -294.8994 
   1   2.0000     -10.837165      -294.8942 
   2   2.0000     -10.836937      -294.8880 
   3   2.0000     -10.836922      -294.8876 
   4   2.0000     -10.836643      -294.8800 
   5   2.0000     -10.836458      -294.8750 
   6   2.0000     -10.836322      -294.8713 
   7   2.0000     -10.836197      -294.8679 
   8   2.0000     -10.836083      -294.8648 
   9   2.0000     -10.835721      -294.8549 
  10   2.0000     -10.835304      -294.8436 
  11   2.0000     -10.834965      -294.8344 
  12   2.0000     -10.834111      -294.8112 
  13   2.0000     -10.834073      -294.8101 
  14   2.0000     -10.833925      -294.8061 
  15   2.0000     -10.833110      -294.7839 
  16   2.0000     -10.832380      -294.7641 
  17   2.0000     -10.832289      -294.7616 
  18   2.0000     -10.832117      -294.7569 
  19   2.0000     -10.831017      -294.7270 
  20   2.0000     -10.825138      -294.5670 
  21   2.0000     -10.824262      -294.5431 
  22   2.0000     -10.823893      -294.5331 
  23   2.0000     -10.823765      -294.5296 
  24   2.0000     -10.823385      -294.5193 
  25   2.0000     -10.823378      -294.5191 
  26   2.0000     -10.823084      -294.5111 
  27   2.0000     -10.823051      -294.5102 
  28   2.0000     -10.823039      -294.5099 
  29   2.0000     -10.822915      -294.5065 
  30   2.0000     -10.822577      -294.4973 
  31   2.0000     -10.822483      -294.4947 
  32   2.0000     -10.822238      -294.4881 
  33   2.0000     -10.822134      -294.4852 
  34   2.0000     -10.821820      -294.4767 
  35   2.0000     -10.821781      -294.4756 
  36   2.0000     -10.821424      -294.4659 
  37   2.0000     -10.820942      -294.4528 
  38   2.0000     -10.820877      -294.4510 
  39   2.0000     -10.820701      -294.4462 
  40   2.0000      -1.109502       -30.1911 
  41   2.0000      -1.085334       -29.5334 
  42   2.0000      -1.078137       -29.3376 
  43   2.0000      -1.061321       -28.8800 
  44   2.0000      -1.049886       -28.5688 
  45   2.0000      -1.029109       -28.0035 
  46   2.0000      -1.008471       -27.4419 
  47   2.0000      -1.003422       -27.3045 
  48   2.0000      -0.996805       -27.1245 
  49   2.0000      -0.969409       -26.3790 
  50   2.0000      -0.964080       -26.2339 
  51   2.0000      -0.944490       -25.7009 
  52   2.0000      -0.941796       -25.6276 
  53   2.0000      -0.922348       -25.0984 
  54   2.0000      -0.917026       -24.9535 
  55   2.0000      -0.912906       -24.8414 
  56   2.0000      -0.902373       -24.5548 
  57   2.0000      -0.888255       -24.1706 
  58   2.0000      -0.882389       -24.0110 
  59   2.0000      -0.843582       -22.9550 
  60   2.0000      -0.819337       -22.2953 
  61   2.0000      -0.799206       -21.7475 
  62   2.0000      -0.795099       -21.6357 
  63   2.0000      -0.784347       -21.3432 
  64   2.0000      -0.778438       -21.1824 
  65   2.0000      -0.762228       -20.7413 
  66   2.0000      -0.750800       -20.4303 
  67   2.0000      -0.744980       -20.2719 
  68   2.0000      -0.733227       -19.9521 
  69   2.0000      -0.718143       -19.5417 
  70   2.0000      -0.713098       -19.4044 
  71   2.0000      -0.684147       -18.6166 
  72   2.0000      -0.665943       -18.1212 
  73   2.0000      -0.661110       -17.9897 
  74   2.0000      -0.659505       -17.9460 
  75   2.0000      -0.651812       -17.7367 
  76   2.0000      -0.635318       -17.2879 
  77   2.0000      -0.628796       -17.1104 
  78   2.0000      -0.618288       -16.8245 
  79   2.0000      -0.607464       -16.5299 
  80   2.0000      -0.601370       -16.3641 
  81   2.0000      -0.591124       -16.0853 
  82   2.0000      -0.587018       -15.9736 
  83   2.0000      -0.573248       -15.5989 
  84   2.0000      -0.568372       -15.4662 
  85   2.0000      -0.565484       -15.3876 
  86   2.0000      -0.562522       -15.3070 
  87   2.0000      -0.551637       -15.0108 
  88   2.0000      -0.548118       -14.9151 
  89   2.0000      -0.540861       -14.7176 
  90   2.0000      -0.537501       -14.6261 
  91   2.0000      -0.536445       -14.5974 
  92   2.0000      -0.530517       -14.4361 
  93   2.0000      -0.527338       -14.3496 
  94   2.0000      -0.523876       -14.2554 
  95   2.0000      -0.516332       -14.0501 
  96   2.0000      -0.515498       -14.0274 
  97   2.0000      -0.506612       -13.7856 
  98   2.0000      -0.501818       -13.6552 
  99   2.0000      -0.498453       -13.5636 
 100   2.0000      -0.497080       -13.5262 
 101   2.0000      -0.494096       -13.4450 
 102   2.0000      -0.485395       -13.2083 
 103   2.0000      -0.476219       -12.9586 
 104   2.0000      -0.474857       -12.9215 
 105   2.0000      -0.469518       -12.7762 
 106   2.0000      -0.462303       -12.5799 
 107   2.0000      -0.461300       -12.5526 
 108   2.0000      -0.452827       -12.3220 
 109   2.0000      -0.447184       -12.1685 
 110   2.0000      -0.440520       -11.9872 
 111   2.0000      -0.433670       -11.8008 
 112   2.0000      -0.429905       -11.6983 
 113   2.0000      -0.428269       -11.6538 
 114   2.0000      -0.412444       -11.2232 
 115   2.0000      -0.407546       -11.0899 
 116   2.0000      -0.403546       -10.9811 
 117   2.0000      -0.400452       -10.8968 
 118   2.0000      -0.392524       -10.6811 
 119   2.0000      -0.366529        -9.9738 
 120   2.0000      -0.355399        -9.6709 
 121   2.0000      -0.338866        -9.2210 
 122   2.0000      -0.328504        -8.9390 
 123   2.0000      -0.314952        -8.5703 
 124   2.0000      -0.298408        -8.1201 
 125   2.0000      -0.297421        -8.0932 
 126   2.0000      -0.283645        -7.7184 
 127   2.0000      -0.263441        -7.1686 
 128   2.0000      -0.256439        -6.9781 
 129   2.0000      -0.196377        -5.3437 
 130   0.0000      -0.044128        -1.2008 
 131   0.0000       0.009280         0.2525 
 132   0.0000       0.019247         0.5237 
 133   0.0000       0.034058         0.9268 
 134   0.0000       0.044606         1.2138 
 135   0.0000       0.050275         1.3681 
 136   0.0000       0.062170         1.6917 
 137   0.0000       0.070308         1.9132 
 138   0.0000       0.074224         2.0197 
 139   0.0000       0.075296         2.0489 
 140   0.0000       0.078157         2.1268 
*Only the first 10 virtual orbitals were printed.
-------
TIMINGS
-------

Total SCF time: 0 days 0 hours 12 min 28 sec 

Total time                  ....     748.760 sec
Sum of individual times     ....     747.950 sec  ( 99.9%)

SCF preparation             ....      16.869 sec  (  2.3%)
Fock matrix formation       ....     664.354 sec  ( 88.7%)
  Startup                   ....       4.578 sec  (  0.7% of F)
  RI-JK                     ....     619.503 sec  ( 93.2% of F)
  XC integration            ....      29.108 sec  (  4.4% of F)
    XC Preparation          ....       0.000 sec  (  0.0% of XC)
    Basis function eval.    ....       1.764 sec  (  6.1% of XC)
    Density eval.           ....       5.680 sec  ( 19.5% of XC)
    XC-Functional eval.     ....       0.054 sec  (  0.2% of XC)
    XC-Potential eval.      ....       7.373 sec  ( 25.3% of XC)
Diagonalization             ....       0.000 sec  (  0.0%)
Density matrix formation    ....      10.422 sec  (  1.4%)
Total Energy calculation    ....       3.112 sec  (  0.4%)
Population analysis         ....       0.000 sec  (  0.0%)
Orbital Transformation      ....       6.320 sec  (  0.8%)
Orbital Orthonormalization  ....       0.000 sec  (  0.0%)
DIIS solution               ....      34.420 sec  (  4.6%)
SOSCF solution              ....      12.246 sec  (  1.6%)
Finished LeanSCF after 749.4 sec

Maximum memory used throughout the entire LEANSCF-calculation: 1522.5 MB


           ************************************************************
           *        Program running with 104 parallel MPI-processes   *
           *              working on a common directory               *
           ************************************************************

------------------------------------------------------------------------------
                                ORCA  MP2 
------------------------------------------------------------------------------


-------------
RI-MP2 ENERGY
-------------
Dimension of the orbital basis            ... 2880
Dimension of the AuxC basis               ... 6760
Memory devoted to MP2                     ... 4096 MB   
Data format for matrix containers         ... DOUBLE
Compression type for matrix containers    ... UNCOMPRESSED
Scaling for aa/bb pairs                   ...   5.710e-02
Scaling for ab pairs                      ...   5.979e-01
Overall scaling of the MP2 energy         ...   1.000e+00

-----------------------
SHARK RI TRANSFORMATION
-----------------------

Number of basis functions                ...   2880
Number of aux functions                  ...   6760
Number of operators                      ...      1
Generation of IJK                        ... NO
Generation of IAK                        ... YES
Generation of ABK                        ... NO
Orbital Range Operator  0:    0- 129 to  130-2879

Aux basis identifier                     ...   AUXC
Contraction scheme used                  ... SEGMENTED
Do orthogonalization                     ... YES
All operator combinations                ... NO
Transpose (ia|K)                         ... NO
Integral generator used                  ... LIBINT
Starting integral generation + trafo... 
Half trafo (segmented) done. Total time = 22.0 sec. integrals=  3.9 sec trafo= 16.7 sec
Integral generation and half transformation done ( 22.0 sec)

Reading or making V^(-1/2)          ... done (  0.8 sec)
Sorting IAK integrals               ... done ( 32.5 sec)

SHARK RI integral transformation done. Total time = 55.6 sec.

Opening buffers                              ... done

Starting loop over batches of integrals:

Operator 0  - window                       ... (  0-129)x(130-2879)
Operator 0  - Memory available             ...  4096 MB
Operator 0  - Memory needed per MO         ... 141.8 MB
Operator 0  - Number of orbitals per batch ... 2
Operator 0  - Number of batches            ... 1

OPERATOR  0   PASS   0:  MOs     0 ...    1 +    2 ...    3 +    4 ...    5 +    6 ...    7
                            +    8 ...    9 +   10 ...   11 +   12 ...   13 +   14 ...   15
                            +   16 ...   17 +   18 ...   19 +   20 ...   21 +   22 ...   23
                            +   24 ...   25 +   26 ...   27 +   28 ...   29 +   30 ...   31
                            +   32 ...   33 +   34 ...   35 +   36 ...   37 +   38 ...   39
                            +   40 ...   41 +   42 ...   43 +   44 ...   45 +   46 ...   47
                            +   48 ...   49 +   50 ...   51 +   52 ...   53 +   54 ...   55
                            +   56 ...   57 +   58 ...   59 +   60 ...   61 +   62 ...   63
                            +   64 ...   65 +   66 ...   67 +   68 ...   69 +   70 ...   71
                            +   72 ...   73 +   74 ...   75 +   76 ...   77 +   78 ...   79
                            +   80 ...   81 +   82 ...   83 +   84 ...   85 +   86 ...   87
                            +   88 ...   89 +   90 ...   91 +   92 ...   93 +   94 ...   95
                            +   96 ...   97 +   98 ...   99 +  100 ...  101 +  102 ...  103
                            +  104 ...  105 +  106 ...  107 +  108 ...  109 +  110 ...  111
                            +  112 ...  113 +  114 ...  115 +  116 ...  117 +  118 ...  119
                            +  120 ...  121 +  122 ...  123 +  124 ...  125 +  126 ...  127
                            +  128 ...  129
  Reading integrals       ... ok
Time spent in pair loops =   490.668 sec

-----------------------------------------------
 RI-MP2 CORRELATION ENERGY:     -3.925863807 Eh
-----------------------------------------------


-------
TIMINGS
-------

Total time                :  553.556 sec
Integral trafo            :   56.058 sec ( 10.1%)
I/O of integrals          :    0.364 sec (  0.1%)
K(i,j) operators          :    5.719 sec (  1.0%)
T(i,j) pair energies      :    0.473 sec (  0.1%)
V**(-1/2)                 :    6.828 sec (  1.2%)


---------------------------------------
MP2 TOTAL ENERGY:    -1534.564242172 Eh
---------------------------------------

Maximum memory used throughout the entire MP2-calculation: 1107.6 MB


-------------------------------------------------------------------------------
                          DFT DISPERSION CORRECTION                            
                                                                               
                                DFTD4 V3.4.0                                   
-------------------------------------------------------------------------------
The REV-DSD-PBEP86-2021 functional is recognized
A user input s6-coefficient scaling factor has been recognized
A user input a1-coefficient scaling factor has been recognized
A user input s8-coefficient scaling factor has been recognized
A user input a2-coefficient scaling factor has been recognized
A user input s9-coefficient scaling factor has been recognized
Active option DFTDOPT                   ...         5   

-------------------------   ----------------
Dispersion correction           -0.068474219
-------------------------   ----------------


-------------------------   --------------------
FINAL SINGLE POINT ENERGY     -1534.632716390820
-------------------------   --------------------



           ************************************************************
           *        Program running with 104 parallel MPI-processes   *
           *              working on a common directory               *
           ************************************************************

------------------------------------------------------------------------------
                              ORCA PROPERTY CALCULATIONS
------------------------------------------------------------------------------

GBWName                                 ... compas3x_hc_c40h20_0pent_142_qz_riri.gbw
Number of atoms                         ...     60
Number of basis functions               ...   2880
Max core memory                         ...   1024 MB

Electric properties:
Dipole moment                           ... YES
Quadrupole moment                       ...  NO
Static polarizability (Dipole/Dipole)   ...  NO
Static polarizability (Dipole/Quad.)    ...  NO
Static polarizability (Quad./Quad.)     ...  NO
Static polarizability (Velocity)        ...  NO

Atomic electric properties:
Dipole moment                           ...  NO
Quadrupole moment                       ...  NO
Static polarizability                   ...  NO

Choice of electric origin               ... Center of mass
Position of electric origin             ...     0.101246     0.221757    -0.072803

General magnetic properties:
Magnetizability                         ...  NO

EPR properties:
g-Tensor (aka g-matrix)                 ...  NO
Zero-Field splitting spin-orbit         ...  NO
Zero-field splitting spin-spin          ...  NO
Hyperfine couplings                     ...  NO (   0 nuclei)
Quadrupole couplings                    ...  NO (   0 nuclei)
Contact density                         ...  NO (   0 nuclei)

NMR properties:
Chemical shifts                         ...  NO (   0 nuclei)
Spin-rotation constants                 ...  NO (   0 nuclei)
Spin-spin couplings                     ...  NO (   0 nuclei,    0 pairs)

Choice of magnetic origin               ... GIAO
Position of magnetic origin             ...     0.000000     0.000000     0.000000

Properties with geometric perturbations:
SCF Hessian                             ...  NO
IR spectrum                             ...  NO
VCD spectrum                            ...  NO
X-ray spectroscopy properties:
SCF XES/XAS/RIXS spectra                ...  NO


-------------
DIPOLE MOMENT
-------------

Method             : SCF
Type of density    : Electron Density
Multiplicity       :   1
Irrep              :   0
Energy             : -1530.6383783652327111 Eh
Relativity type    : 
Basis              : AO
                                X                 Y                 Z
Electronic contribution:      3.314510114       7.153322161      -2.322632992
Nuclear contribution   :     -3.297279162      -7.211810314       2.365259226
                        -----------------------------------------
Total Dipole Moment    :      0.017230953      -0.058488153       0.042626234
                        -----------------------------------------
Magnitude (a.u.)       :      0.074396005
Magnitude (Debye)      :      0.189099618



--------------------
Rotational spectrum 
--------------------
 
Rotational constants in cm-1:             0.004135             0.002850             0.001723 
Rotational constants in MHz :           123.969508            85.434691            51.666665 

Dipole components along the rotational axes: 
x,y,z [a.u.] :    -0.069062     0.010413     0.025628 
x,y,z [Debye]:    -0.175541     0.026468     0.065142 

 

Dipole moment calculation done in   0.5 sec 

Maximum memory used throughout the entire PROP-calculation: 492.2 MB

--------------------------------
SUGGESTED CITATIONS FOR THIS RUN
--------------------------------

Below you find a list of papers that are relevant to this ORCA run
We neither can nor want to force you to cite these papers, but we appreciate if you do
You receive ORCA, which is the product of decades of hard work by many enthusiastic individuals, for free
The only thing we kindly ask in return is that you cite our papers,
We deeply appreciate it, if you show your appreciation for ORCA by not just citing the generic ORCA reference.

Please note that relegating all ORCA citations to the supporting information does *not* help us.
SI sections are not indexed - citations you put there will not count into any citation statistics
But we need these citations in order to attract the funding resources that allow us to do what we are doing

Therefore, if you are a happy ORCA user, please consider citing a few of the papers listed below in the main body of your paper

In addition to the list printed below, the program has created the file compas3x_hc_c40h20_0pent_142_qz_riri.bibtex that contains the list in bibtex format
You can import this file easily into all common literature databanks and citation aid programs


List of essential papers. We consider these as the minimum necessary citations

  1. Neese,F.
     Software update: the ORCA program system, version 5.0
     WIRES Comput. Molec. Sci., 2022 12(1)e1606
     doi.org/10.1002/wcms.1606

List of papers to cite with high priority. The work reported in these papers was absolutely
necessary for this run to complete.
Our perspective: the developers of density functionals and basis sets usually get cited in chemistry papers
Good! But without the algorithms to do something with them, the functionals or basis sets would not do anything.
Hence, in our opinion, the algorithm design and method developments papers are equally worthy of getting cited

  1. Neese,F.
     An improvement of the resolution of the identity approximation for the formation of the Coulomb matrix
     J. Comp. Chem., 2003 24(14)1740-1747
     doi.org/10.1002/jcc.10318
  2. Kossmann,S.; Neese,F.
     Comparison of two efficient approximate Hartee-Fock approaches
     Chem. Phys. Lett., 2009 481 240-243
     doi.org/10.1016/j.cplett.2009.09.073
  3. Neese,F.
     The SHARK Integral Generation and Digestion System
     J. Comp. Chem., 2022  1-16
     doi.org/10.1002/jcc.26942
  4. Caldeweyher,E.; Bannwarth,C.; Grimme,S.
     Extension of the D3 dispersion coefficient model
     J. Chem. Phys., 2017 147 034112
     doi.org/10.1063/1.4993215
  5. Caldeweyher,E.; Ehlert,S.; Hansen,A.; Neugebauer,H.; Spicher,S.; Bannwarth,C.; Grimme,S.
     A generally applicable atomic-charge dependent London dispersion correction
     J. Chem. Phys., 2019 150 154122
     doi.org/10.1063/1.5090222
  6. Caldeweyher,E.; Mewes,J.; Ehlert,S.; Grimme,S.
     Extension and evaluation of the D4 London-dispersion model for periodic systems
     Phys. Chem. Chem. Phys., 2020 22(16)8499-8512
     doi.org/10.1039/D0CP00502A
  7. Wittmann,L.; Gordiy,I.; Friede,M.; Helmich-Paris,B.; Grimme,S.; Hansen,A.; Bursch,M.
     Extension of the D3 and D4 London Dispersion Corrections to the full Actinides Series
     Phys. Chem. Chem. Phys., 2024 26(32)21379-21394
     doi.org/https://doi.org/10.1039/D4CP01514B 

List of suggested additional citations. These are papers that are important in the 'surrounding' of 
of this run, or papers that preceded the highly important papers. If you like your results we are grateful for a citation.

  1. Neese,F.
     The ORCA program system
     WIRES Comput. Molec. Sci., 2012 2(1)73-78
     doi.org/10.1002/wcms.81
  2. Neese,F.
     Software update: the ORCA program system, version 4.0
     WIRES Comput. Molec. Sci., 2018 8(1)1-6
     doi.org/10.1002/wcms.1327
  3. Neese,F.; Wennmohs,F.; Becker,U.; Riplinger,C.
     The ORCA quantum chemistry program package
     J. Chem. Phys., 2020 152 Art. No. L224108
     doi.org/10.1063/5.0004608

List of optional additional citations

  1. Neese,F.
     Approximate second-order SCF convergence for spin unrestricted wavefunctions
     Chem. Phys. Lett., 2000 325(1-3)93-98
     doi.org/10.1016/s0009-2614(00)00662-x

Timings for individual modules:

Sum of individual times          ...     1402.392 sec (=  23.373 min)
Startup calculation              ...       34.772 sec (=   0.580 min)   2.5 %
SCF iterations                   ...      776.364 sec (=  12.939 min)  55.4 %
Property calculations            ...       18.469 sec (=   0.308 min)   1.3 %
MP2 module                       ...      572.787 sec (=   9.546 min)  40.8 %
                             ****ORCA TERMINATED NORMALLY****
TOTAL RUN TIME: 0 days 0 hours 23 minutes 39 seconds 576 msec
