
                                 *****************
                                 * O   R   C   A *
                                 *****************

                                            #,                                       
                                            ###                                      
                                            ####                                     
                                            #####                                    
                                            ######                                   
                                           ########,                                 
                                     ,,################,,,,,                         
                               ,,#################################,,                 
                          ,,##########################################,,             
                       ,#########################################, ''#####,          
                    ,#############################################,,   '####,        
                  ,##################################################,,,,####,       
                ,###########''''           ''''###############################       
              ,#####''   ,,,,##########,,,,          '''####'''          '####       
            ,##' ,,,,###########################,,,                        '##       
           ' ,,###''''                  '''############,,,                           
         ,,##''                                '''############,,,,        ,,,,,,###''
      ,#''                                            '''#######################'''  
     '                                                          ''''####''''         
             ,#######,   #######,   ,#######,      ##                                
            ,#'     '#,  ##    ##  ,#'     '#,    #''#        ,####,   ,####,        
            ##       ##  ##   ,#'  ##            #'  '#       #'       #'  '#        
            ##       ##  #######   ##           ,######,      #####,   #    #        
            '#,     ,#'  ##    ##  '#,     ,#' ,#      #,     #,   #   #,  ,#        
             '#######'   ##     ##  '#######'  #'      '#     '####' # '####'        



                #########################################################
                #                        -***-                          #
                #          Department of theory and spectroscopy        #
                #                                                       #
                #                      Frank Neese                      #
                #                                                       #
                #     Directorship, Architecture, Infrastructure        #
                #                    SHARK, DRIVERS                     #
                #        Core code/Algorithms in most modules           #
                #                                                       #
                #        Max Planck Institute fuer Kohlenforschung      #
                #                Kaiser Wilhelm Platz 1                 #
                #                 D-45470 Muelheim/Ruhr                 #
                #                      Germany                          #
                #                                                       #
                #                  All rights reserved                  #
                #                        -***-                          #
                #########################################################


                         Program Version 6.0.1  -  RELEASE   -


 With contributions from (in alphabetic order):
[Max-Planck-Institut fuer Kohlenforschung]                               
  Daniel Aravena         : Magnetic Suceptibility                        
  Michael Atanasov       : Ab Initio Ligand Field Theory (pilot matlab implementation)
  Alexander A. Auer      : GIAO ZORA, VPT2 properties, NMR spectrum      
  Ute Becker             : All parallelization in ORCA, NUMFREQ, NUMCALC 
  Giovanni Bistoni       : ED, misc. LED, open-shell LED, HFLD           
  Martin Brehm           : Molecular dynamics                            
  Dmytro Bykov           : pre 5.0 version of the SCF Hessian            
  Marcos Casanova-Páez   : Triplet and SCS-CIS(D). UHF-(DLPNO)-IP/EA/STEOM-CCSD. UHF-CVS-IP/STEOM-CCSD   
  Vijay G. Chilkuri      : MRCI spin determinant printing, contributions to CSF-ICE 
  Pauline Colinet        : FMM embedding                                 
  Dipayan Datta          : RHF DLPNO-CCSD density                        
  Achintya Kumar Dutta   : EOM-CC, STEOM-CC                              
  Nicolas Foglia         : Exact transition moments, OPA infrastructure, MCD improvements    
  Dmitry Ganyushin       : Spin-Orbit,Spin-Spin,Magnetic field MRCI      
  Miquel Garcia-Rates    : C-PCM and meta-GGA Hessian, CCSD/C-PCM, Gaussian charge scheme 
  Tiago L. C. Gouveia    : GS-ROHF, GS-ROCIS                             
  Yang Guo               : DLPNO-NEVPT2, F12-NEVPT2, CIM, IAO-localization        
  Andreas Hansen         : Spin unrestricted coupled pair/coupled cluster methods 
  Ingolf Harden          : AUTO-CI MPn and infrastructure                
  Benjamin Helmich-Paris : MC-RPA, TRAH-(SCF,CASSCF), AVAS, COSX integrals, SCF dyn. polar. 
  Lee Huntington         : MR-EOM, pCC                                   
  Robert Izsak           : Overlap fitted RIJCOSX, COSX-SCS-MP3, EOM     
  Riya Kayal             : Wick's Theorem for AUTO-CI, AUTO-CI UHF-CCSDT 
  Emily Kempfer          : AUTO-CI, RHF CISDT and CCSDT                  
  Christian Kollmar      : KDIIS, OOCD, Brueckner-CCSD(T), CCSD density, CASPT2, CASPT2-K, improved NEVPT2 
  Axel Koslowski         : Symmetry handling                             
  Simone Kossmann        : meta-GGA functionals, TD-DFT gradient, OOMP2, (MP2 Hessian; deprecated post 5.0) 
  Lucas Lang             : DCDCAS                                        
  Marvin Lechner         : AUTO-CI (C++ implementation), FIC-MRCC        
  Spencer Leger          : CASSCF response                               
  Dagmar Lenk            : GEPOL surface, SMD, ORCA-2-JSON               
  Dimitrios Liakos       : Extrapolation schemes; Compound Job, initial MDCI parallelization 
  Dimitrios Manganas     : Further ROCIS development; embedding schemes. LFT, Crystal Embedding 
  Dimitrios Pantazis     : SARC Basis sets                               
  Anastasios Papadopoulos: AUTO-CI, single reference methods and gradients 
  Taras Petrenko         : pre 6.0 DFT Hessian and TD-DFT gradient, (ASA, deprecated), ECA, 1-Electron XAS/XES, NRVS 
  Peter Pinski           : DLPNO-MP2, DLPNO-MP2 Gradient                 
  Christoph Reimann      : Effective Core Potentials                     
  Marius Retegan         : Local ZFS, SOC                                
  Christoph Riplinger    : Optimizer, TS searches, QM/MM, DLPNO-CCSD(T), (RO)-DLPNO pert. Triples 
  Michael Roemelt        : Original ROCIS implementation                 
  Masaaki Saitow         : Open-shell DLPNO-CCSD energy and density      
  Barbara Sandhoefer     : DKH picture change effects                    
  Kantharuban Sivalingam : CASSCF convergence/infrastructure, NEVPT2 and variants, FIC-MRCI 
  Bernardo de Souza      : ESD, SOC TD-DFT                               
  Georgi L. Stoychev     : AutoAux, RI-MP2 NMR, DLPNO-MP2 response, X2C  
  Van Anh Tran           : RI-MP2 g-tensors                              
  Willem Van den Heuvel  : Paramagnetic NMR                              
  Zikuan Wang            : NOTCH, Electric field optimization            
  Frank Wennmohs         : Technical directorship and infrastructure     
  Hang Xu                : AUTO-CI-Response properties                   
                                                                         
[FACCTs GmbH]                                                            
  Markus Bursch, Miquel Garcia-Rates, Christoph Riplinger, Bernardo de Souza, Georgi L. Stoychev 
                                                                 
  APM, Basis sets (HGBS, AHGBS, def-TZVP (Ac-Lr), def2-XVPD (La-Lu)), CI-OPT, improved COSX, DLPNO-Multilevel,           
  DOCKER, DRACO, updates on ESD, GOAT, IRC, LR-CPCM, MBIS, meta-GGA TD-DFT gradient, ML-optimized integration grids, 
  MM, NACMEs, nearIR, NEB, NEB-TS, NL-DFT gradient (VV10), 2- and 3-layer-ONIOM, interface openCOSMO-RS, QMMM,   
  Crystal-QMMM, SF, symmetry and pop. for TD-DFT, r2SCAN hybrids, SOLVATOR                                   
                                                                         
[Other institutions]                                                     
  V. Asgeirsson          : NEB                                           
  Christoph Bannwarth    : sTDA-DFT, sTD-DFT, PBEh-3c, B97-3c, D3        
  Sebastian Ehlert       : rSCAN, r2SCAN, r2SCAN-3c, D4, dhf basis sets  
  Marvin Friede          : D4 for Fr, Ra, Ac-Lr                          
  Lars Goerigk           : TD-DFT with DH, B97 family of functionals     
  Stefan Grimme          : VdW corrections, initial TS optimization, DFT functionals, gCP, sTDA/sTD-DF 
  Waldemar Hujo          : DFT-NL                                        
  H. Jonsson             : NEB                                           
  Holger Kruse           : gCP                                           
  Marcel Mueller         : wB97X-3c, vDZP basis set                      
  Hagen Neugebauer       : wr2SCAN                                       
  Tobias Risthaus        : range-separated hybrid DFT                    
  Lukas Wittmann         : regularized MP2, r2SCAN double-hybrids, wr2SCAN        
                                                                         
We gratefully acknowledge several colleagues who have allowed us to      
interface, adapt or use parts of their codes:                            
  Ed Valeev, F. Pavosevic, A. Kumar             : LibInt (2-el integral package), F12 methods 
  Garnet Chan, S. Sharma, J. Yang, R. Olivares  : DMRG                   
  Ulf Ekstrom                                   : XCFun DFT Library      
  Mihaly Kallay                                 : mrcc  (arbitrary order and MRCC methods)
  Frank Weinhold                                : gennbo (NPA and NBO analysis)           
  Simon Mueller                                 : openCOSMO-RS                            
  Christopher J. Cramer and Donald G. Truhlar   : smd solvation model                     
  S Lehtola, MJT Oliveira, MAL Marques          : LibXC Library                           
  Liviu Ungur et al                             : ANISO software                          


 Your calculation uses the libint2 library for the computation of 2-el integrals
 For citations please refer to: http://libint.valeyev.net

 Your ORCA version has been built with support for libXC version: 6.2.2
 For citations please refer to: https://libxc.gitlab.io

 This ORCA versions uses:
   CBLAS   interface :  Fast vector & matrix operations
   LAPACKE interface :  Fast linear algebra routines
   SCALAPACK package :  Parallel linear algebra routines
   Shared memory     :  Shared parallel matrices
   BLAS/LAPACK       :  OpenBLAS 0.3.27  USE64BITINT DYNAMIC_ARCH NO_AFFINITY SapphireRapids SINGLE_THREADED
        Core in use  :  SapphireRapids
   Copyright (c) 2011-2014, The OpenBLAS Project




***************************************
The coordinates will be read from file: /scratch/kx58/rs2200/dhdft/inputs/compas3D-xyzs/hc_c24h14_0pent_13.xyz
***************************************


Your calculation utilizes the atom-pairwise dispersion correction
based on EEQ partial charges (D4)


Warning: RI is on but no J-basis has been assigned. Assigning Def2/J (nothing to worry about!)
================================================================================

----- Orbital basis set information -----
Your calculation utilizes the basis: def2-SVP
   F. Weigend and R. Ahlrichs, Phys. Chem. Chem. Phys. 7, 3297 (2005).

----- AuxJ basis set information -----
Your calculation utilizes the auxiliary basis: def2/J
   F. Weigend, Phys. Chem. Chem. Phys. 8, 1057 (2006).

----- AuxC basis set information -----
Your calculation utilizes the auxiliary basis: def2-SVP/C
  H-La, Hf-Rn : A. Hellweg, C. Hattig, S. Hofener and W. Klopper, Theor. Chem. Acc. 117, 587 (2007).
        Ce-Lu : J. Chmela and M. E. Harding, Mol. Phys. (2018).

================================================================================
                                        WARNINGS
                       Please study these warnings very carefully!
================================================================================


WARNING: No MP2 level density has been requested!
         To calculate MP2 level properties use
         %mp2 Density relaxed end
         or
         %mp2 Density unrelaxed end
         Otherwise for double-hybrid DFT only the energy is correct!

================================================================================
                                       INPUT FILE
================================================================================
NAME = compas3D_hc_c24h14_0pent_13_dz_ri.inp
|  1> ! RKS revDSD-PBEP86-D4/2021 defgrid3  NOPOP NoFrozencore NoUseSym
|  2> 
|  3> %basis
|  4> Basis "def2-SVP"
|  5> 
|  6> AuxC "def2-SVP/C"
|  7> end
|  8> 
|  9> %method
| 10> ScalHFX 0.69
| 11> ScalDFX 0.31
| 12> ScalDFC 0.4038
| 13> ScalLDAC 0.4038
| 14> 
| 15> D4S6 0.4612
| 16> D4S8 0.0
| 17> D4A1 0.44
| 18> D4A2 3.60
| 19> end
| 20> 
| 21> %mp2
| 22> PS 0.5979
| 23> PT 0.0571
| 24> end
| 25> 
| 26> %pal
| 27> nprocs 104
| 28> end
| 29> 
| 30> *XYZFILE 0 1 /scratch/kx58/rs2200/dhdft/inputs/compas3D-xyzs/hc_c24h14_0pent_13.xyz
| 31> 
| 32>                          ****END OF INPUT****
================================================================================

                       ****************************
                       * Single Point Calculation *
                       ****************************

---------------------------------
CARTESIAN COORDINATES (ANGSTROEM)
---------------------------------
  C      0.397835   -0.474342    0.038878
  C     -0.958348   -0.863166   -0.036329
  C     -2.003753    0.107149   -0.236126
  C     -1.648913    1.536337   -0.269335
  C     -0.277845    1.889247   -0.438343
  C      0.747304    0.890254   -0.400753
  C      1.355206   -1.409312    0.522459
  C      0.981801   -2.791467    0.652953
  C     -0.330721   -3.181876    0.395242
  C     -1.320047   -2.243683    0.107360
  C     -2.683587   -2.632980   -0.048728
  C     -3.645424   -1.698151   -0.293657
  C     -3.302941   -0.326676   -0.374021
  C     -2.596507    2.543383   -0.206703
  C     -2.241791    3.894640   -0.368419
  C     -0.940699    4.241001   -0.632669
  C      0.066794    3.247075   -0.693374
  C      1.404934    3.571046   -1.034756
  C      2.342788    2.579488   -1.150418
  C      2.014734    1.245953   -0.834241
  C      2.668186   -1.052348    0.972717
  C      3.558770   -1.989251    1.413182
  C      3.214442   -3.368831    1.430208
  C      1.957089   -3.750694    1.073100
  H     -0.599602   -4.238254    0.467447
  H     -2.937907   -3.691236    0.039758
  H     -4.688280   -1.996556   -0.416540
  H     -4.099606    0.394764   -0.553831
  H     -3.644273    2.295786   -0.037750
  H     -3.014968    4.663045   -0.307852
  H     -0.663362    5.283296   -0.804163
  H      1.661242    4.613049   -1.237683
  H      3.358652    2.816039   -1.473119
  H      2.781541    0.483322   -0.948053
  H      2.944062   -0.002000    1.019567
  H      4.538560   -1.673931    1.777588
  H      3.945556   -4.108410    1.762411
  H      1.657078   -4.799708    1.124992

----------------------------
CARTESIAN COORDINATES (A.U.)
----------------------------
  NO LB      ZA    FRAG     MASS         X           Y           Z
   0 C     6.0000    0    12.011    0.751799   -0.896377    0.073470
   1 C     6.0000    0    12.011   -1.811015   -1.631148   -0.068651
   2 C     6.0000    0    12.011   -3.786544    0.202482   -0.446213
   3 C     6.0000    0    12.011   -3.115994    2.903257   -0.508970
   4 C     6.0000    0    12.011   -0.525052    3.570159   -0.828349
   5 C     6.0000    0    12.011    1.412199    1.682336   -0.757313
   6 C     6.0000    0    12.011    2.560969   -2.663214    0.987304
   7 C     6.0000    0    12.011    1.855335   -5.275108    1.233902
   8 C     6.0000    0    12.011   -0.624972   -6.012874    0.746899
   9 C     6.0000    0    12.011   -2.494528   -4.239945    0.202882
  10 C     6.0000    0    12.011   -5.071244   -4.975611   -0.092082
  11 C     6.0000    0    12.011   -6.888853   -3.209040   -0.554931
  12 C     6.0000    0    12.011   -6.241654   -0.617329   -0.706797
  13 C     6.0000    0    12.011   -4.906686    4.806297   -0.390612
  14 C     6.0000    0    12.011   -4.236371    7.359803   -0.696211
  15 C     6.0000    0    12.011   -1.777663    8.014331   -1.195571
  16 C     6.0000    0    12.011    0.126221    6.136082   -1.310288
  17 C     6.0000    0    12.011    2.654941    6.748299   -1.955405
  18 C     6.0000    0    12.011    4.427228    4.874526   -2.173975
  19 C     6.0000    0    12.011    3.807295    2.354509   -1.576486
  20 C     6.0000    0    12.011    5.042141   -1.988650    1.838168
  21 C     6.0000    0    12.011    6.725101   -3.759140    2.670527
  22 C     6.0000    0    12.011    6.074415   -6.366168    2.702701
  23 C     6.0000    0    12.011    3.698362   -7.087785    2.027866
  24 H     1.0000    0     1.008   -1.133083   -8.009139    0.883347
  25 H     1.0000    0     1.008   -5.551839   -6.975425    0.075132
  26 H     1.0000    0     1.008   -8.859565   -3.772944   -0.787146
  27 H     1.0000    0     1.008   -7.747132    0.745996   -1.046589
  28 H     1.0000    0     1.008   -6.886679    4.338406   -0.071336
  29 H     1.0000    0     1.008   -5.697464    8.811878   -0.581757
  30 H     1.0000    0     1.008   -1.253573    9.983983   -1.519648
  31 H     1.0000    0     1.008    3.139292    8.717399   -2.338882
  32 H     1.0000    0     1.008    6.346933    5.321543   -2.783792
  33 H     1.0000    0     1.008    5.256351    0.913346   -1.791561
  34 H     1.0000    0     1.008    5.563471   -0.003780    1.926702
  35 H     1.0000    0     1.008    8.576635   -3.163270    3.359154
  36 H     1.0000    0     1.008    7.456021   -7.763770    3.330474
  37 H     1.0000    0     1.008    3.131423   -9.070134    2.125927

--------------------------------
INTERNAL COORDINATES (ANGSTROEM)
--------------------------------
 C      0   0   0     0.000000000000     0.00000000     0.00000000
 C      1   0   0     1.412824367835     0.00000000     0.00000000
 C      2   1   0     1.440243448745   121.24666044     0.00000000
 C      3   2   1     1.472954130935   118.81385318   355.80517697
 C      4   3   2     1.425810350230   118.32595174    15.43150621
 C      5   4   3     1.431897237239   120.84078964   351.93216203
 C      1   2   3     1.422876785027   118.88926792   166.42079026
 C      7   1   2     1.437640938485   119.19778336    12.98753735
 C      8   7   1     1.393394871017   119.81780000   355.56657770
 C      9   8   7     1.393502460017   121.21968174   355.19506058
 C     10   9   8     1.426589235776   121.16190111   185.16813799
 C     11  10   9     1.363461083454   120.45195192   178.17767773
 C      3   2   1     1.376630033772   119.11761999   176.56884599
 C      4   3   2     1.384195498767   122.68203515   192.30599782
 C     14   4   3     1.406367680872   121.40963664   186.15070805
 C     15  14   4     1.372091570675   120.25546544     1.90224546
 C     16  15  14     1.416550861974   120.36849439   357.52200772
 C     17  16  15     1.418492097168   121.39958826   176.60201294
 C     18  17  16     1.369720707639   120.05995225   183.25385339
 C      6   5   4     1.385933768722   117.86915884   167.26497256
 C      7   1   2     1.433203320442   124.02197969   196.89826014
 C     21   7   1     1.365626710475   121.86312652   180.83041535
 C     22  21   7     1.422003185954   120.76669106     0.53290372
 C     23  22  21     1.361720311654   119.50537223   356.33753231
 H      9   8   7     1.092448774759   119.37684529   178.17630407
 H     11  10   9     1.091976879363   118.56785554   358.63136941
 H     12  11  10     1.091647346754   120.44495432   179.78575551
 H     13   3   2     1.089716825316   119.85743447   181.72601078
 H     14   4   3     1.089800386182   119.99336655     5.60029948
 H     15  14   4     1.091749323306   119.42253085   180.30878363
 H     16  15  14     1.092110315180   120.79488196   177.23863069
 H     18  17  16     1.092081720419   118.94955383     1.03541071
 H     19  18  17     1.091820623474   120.34379547   176.19447473
 H     20   6   5     1.087452131343   119.84103432   188.30516932
 H     21   7   1     1.086983475034   119.12541353     4.42752570
 H     22  21   7     1.091881992787   119.65082703   181.91303357
 H     23  22  21     1.091725321536   119.91493244   178.52433818
 H     24  23  22     1.092304792335   120.69463136   182.95125071

---------------------------
INTERNAL COORDINATES (A.U.)
---------------------------
 C      0   0   0     0.000000000000     0.00000000     0.00000000
 C      1   0   0     2.669851130538     0.00000000     0.00000000
 C      2   1   0     2.721665684302   121.24666044     0.00000000
 C      3   2   1     2.783479915296   118.81385318   355.80517697
 C      4   3   2     2.694391080845   118.32595174    15.43150621
 C      5   4   3     2.705893630301   120.84078964   351.93216203
 C      1   2   3     2.688847446016   118.88926792   166.42079026
 C      7   1   2     2.716747652651   119.19778336    12.98753735
 C      8   7   1     2.633134702633   119.81780000   355.56657770
 C      9   8   7     2.633338016378   121.21968174   355.19506058
 C     10   9   8     2.695862961217   121.16190111   185.16813799
 C     11  10   9     2.576568041988   120.45195192   178.17767773
 C      3   2   1     2.601453751561   119.11761999   176.56884599
 C      4   3   2     2.615750408476   122.68203515   192.30599782
 C     14   4   3     2.657649760447   121.40963664   186.15070805
 C     15  14   4     2.592877299237   120.25546544     1.90224546
 C     16  15  14     2.676893183901   120.36849439   357.52200772
 C     17  16  15     2.680561586778   121.39958826   176.60201294
 C     18  17  16     2.588397017399   120.05995225   183.25385339
 C      6   5   4     2.619035262638   117.86915884   167.26497256
 C      7   1   2     2.708361769862   124.02197969   196.89826014
 C     21   7   1     2.580660483965   121.86312652   180.83041535
 C     22  21   7     2.687196583017   120.76669106     0.53290372
 C     23  22  21     2.573278460024   119.50537223   356.33753231
 H      9   8   7     2.064428999632   119.37684529   178.17630407
 H     11  10   9     2.063537246569   118.56785554   358.63136941
 H     12  11  10     2.062914520188   120.44495432   179.78575551
 H     13   3   2     2.059266363373   119.85743447   181.72601078
 H     14   4   3     2.059424270525   119.99336655     5.60029948
 H     15  14   4     2.063107227942   119.42253085   180.30878363
 H     16  15  14     2.063789403721   120.79488196   177.23863069
 H     18  17  16     2.063735367454   118.94955383     1.03541071
 H     19  18  17     2.063241965733   120.34379547   176.19447473
 H     20   6   5     2.054986711987   119.84103432   188.30516932
 H     21   7   1     2.054101079912   119.12541353     4.42752570
 H     22  21   7     2.063357936928   119.65082703   181.91303357
 H     23  22  21     2.063061871169   119.91493244   178.52433818
 H     24  23  22     2.064156912283   120.69463136   182.95125071

---------------------
BASIS SET INFORMATION
---------------------
There are 2 groups of distinct atoms

 Group   1 Type C   : 7s4p1d contracted to 3s2p1d pattern {511/31/1}
 Group   2 Type H   : 4s1p contracted to 2s1p pattern {31/1}

Atom   0C    basis set group =>   1
Atom   1C    basis set group =>   1
Atom   2C    basis set group =>   1
Atom   3C    basis set group =>   1
Atom   4C    basis set group =>   1
Atom   5C    basis set group =>   1
Atom   6C    basis set group =>   1
Atom   7C    basis set group =>   1
Atom   8C    basis set group =>   1
Atom   9C    basis set group =>   1
Atom  10C    basis set group =>   1
Atom  11C    basis set group =>   1
Atom  12C    basis set group =>   1
Atom  13C    basis set group =>   1
Atom  14C    basis set group =>   1
Atom  15C    basis set group =>   1
Atom  16C    basis set group =>   1
Atom  17C    basis set group =>   1
Atom  18C    basis set group =>   1
Atom  19C    basis set group =>   1
Atom  20C    basis set group =>   1
Atom  21C    basis set group =>   1
Atom  22C    basis set group =>   1
Atom  23C    basis set group =>   1
Atom  24H    basis set group =>   2
Atom  25H    basis set group =>   2
Atom  26H    basis set group =>   2
Atom  27H    basis set group =>   2
Atom  28H    basis set group =>   2
Atom  29H    basis set group =>   2
Atom  30H    basis set group =>   2
Atom  31H    basis set group =>   2
Atom  32H    basis set group =>   2
Atom  33H    basis set group =>   2
Atom  34H    basis set group =>   2
Atom  35H    basis set group =>   2
Atom  36H    basis set group =>   2
Atom  37H    basis set group =>   2
---------------------------------
AUXILIARY/J BASIS SET INFORMATION
---------------------------------
There are 2 groups of distinct atoms

 Group   1 Type C   : 12s5p4d2f1g contracted to 6s4p3d1f1g pattern {711111/2111/211/2/1}
 Group   2 Type H   : 5s2p1d contracted to 3s1p1d pattern {311/2/1}

Atom   0C    basis set group =>   1
Atom   1C    basis set group =>   1
Atom   2C    basis set group =>   1
Atom   3C    basis set group =>   1
Atom   4C    basis set group =>   1
Atom   5C    basis set group =>   1
Atom   6C    basis set group =>   1
Atom   7C    basis set group =>   1
Atom   8C    basis set group =>   1
Atom   9C    basis set group =>   1
Atom  10C    basis set group =>   1
Atom  11C    basis set group =>   1
Atom  12C    basis set group =>   1
Atom  13C    basis set group =>   1
Atom  14C    basis set group =>   1
Atom  15C    basis set group =>   1
Atom  16C    basis set group =>   1
Atom  17C    basis set group =>   1
Atom  18C    basis set group =>   1
Atom  19C    basis set group =>   1
Atom  20C    basis set group =>   1
Atom  21C    basis set group =>   1
Atom  22C    basis set group =>   1
Atom  23C    basis set group =>   1
Atom  24H    basis set group =>   2
Atom  25H    basis set group =>   2
Atom  26H    basis set group =>   2
Atom  27H    basis set group =>   2
Atom  28H    basis set group =>   2
Atom  29H    basis set group =>   2
Atom  30H    basis set group =>   2
Atom  31H    basis set group =>   2
Atom  32H    basis set group =>   2
Atom  33H    basis set group =>   2
Atom  34H    basis set group =>   2
Atom  35H    basis set group =>   2
Atom  36H    basis set group =>   2
Atom  37H    basis set group =>   2
---------------------------------
AUXILIARY/C BASIS SET INFORMATION
---------------------------------
There are 2 groups of distinct atoms

 Group   1 Type C   : 8s6p5d3f contracted to 6s5p4d1f pattern {311111/21111/2111/3}
 Group   2 Type H   : 4s3p2d contracted to 3s2p1d pattern {211/21/2}

Atom   0C    basis set group =>   1
Atom   1C    basis set group =>   1
Atom   2C    basis set group =>   1
Atom   3C    basis set group =>   1
Atom   4C    basis set group =>   1
Atom   5C    basis set group =>   1
Atom   6C    basis set group =>   1
Atom   7C    basis set group =>   1
Atom   8C    basis set group =>   1
Atom   9C    basis set group =>   1
Atom  10C    basis set group =>   1
Atom  11C    basis set group =>   1
Atom  12C    basis set group =>   1
Atom  13C    basis set group =>   1
Atom  14C    basis set group =>   1
Atom  15C    basis set group =>   1
Atom  16C    basis set group =>   1
Atom  17C    basis set group =>   1
Atom  18C    basis set group =>   1
Atom  19C    basis set group =>   1
Atom  20C    basis set group =>   1
Atom  21C    basis set group =>   1
Atom  22C    basis set group =>   1
Atom  23C    basis set group =>   1
Atom  24H    basis set group =>   2
Atom  25H    basis set group =>   2
Atom  26H    basis set group =>   2
Atom  27H    basis set group =>   2
Atom  28H    basis set group =>   2
Atom  29H    basis set group =>   2
Atom  30H    basis set group =>   2
Atom  31H    basis set group =>   2
Atom  32H    basis set group =>   2
Atom  33H    basis set group =>   2
Atom  34H    basis set group =>   2
Atom  35H    basis set group =>   2
Atom  36H    basis set group =>   2
Atom  37H    basis set group =>   2


           ************************************************************
           *        Program running with 104 parallel MPI-processes   *
           *              working on a common directory               *
           ************************************************************
------------------------------------------------------------------------------
                             ORCA STARTUP CALCULATIONS
                           -- RI-GTO INTEGRALS CHOSEN --
------------------------------------------------------------------------------
------------------------------------------------------------------------------
                   ___                                                        
                  /   \      - P O W E R E D   B Y -                         
                 /     \                                                     
                 |  |  |   _    _      __       _____    __    __             
                 |  |  |  | |  | |    /  \     |  _  \  |  |  /  |          
                  \  \/   | |  | |   /    \    | | | |  |  | /  /          
                 / \  \   | |__| |  /  /\  \   | |_| |  |  |/  /          
                |  |  |   |  __  | /  /__\  \  |    /   |      \           
                |  |  |   | |  | | |   __   |  |    \   |  |\   \          
                \     /   | |  | | |  |  |  |  | |\  \  |  | \   \       
                 \___/    |_|  |_| |__|  |__|  |_| \__\ |__|  \__/        
                                                                              
                      - O R C A' S   B I G   F R I E N D -                    
                                      &                                       
                       - I N T E G R A L  F E E D E R -                       
                                                                              
 v1 FN, 2020, v2 2021, v3 2022-2024                                           
------------------------------------------------------------------------------


----------------------
SHARK INTEGRAL PACKAGE
----------------------

Number of atoms                             ...     38
Number of basis functions                   ...    406
Number of shells                            ...    186
Maximum angular momentum                    ...      2
Integral batch strategy                     ... SHARK/LIBINT Hybrid
RI-J (if used) integral strategy            ... SPLIT-RIJ (Revised 2003 algorithm where possible)
Printlevel                                  ...      1
Contraction scheme used                     ... SEGMENTED contraction
Prescreening option                         ... SCHWARTZ
   Thresh                                   ... 1.000e-10
   Tcut                                     ... 1.000e-11
   Tpresel                                  ... 1.000e-11 
Coulomb Range Separation                    ... NOT USED
Exchange Range Separation                   ... NOT USED
Multipole approximations                    ... NOT USED
Finite Nucleus Model                        ... NOT USED
CABS basis                                  ... NOT available
Auxiliary Coulomb fitting basis             ... AVAILABLE
   # of basis functions in Aux-J            ...   1330
   # of shells in Aux-J                     ...    430
   Maximum angular momentum in Aux-J        ...      4
Auxiliary J/K fitting basis                 ... NOT available
Auxiliary Correlation fitting basis         ... AVAILABLE
   # of basis functions in Aux-C            ...   1348
   # of shells in Aux-C                     ...    468
   Maximum angular momentum in Aux-C        ...      3
Auxiliary 'external' fitting basis          ... NOT available

Checking pre-screening integrals            ... done (  0.0 sec) Dimension = 186
Check shell pair data                       ... done (  0.0 sec)
Shell pair information
Shell pair cut-off parameter TPreSel        ...   1.0e-11
Total number of shell pairs                 ...     17391
Shell pairs after pre-screening             ...     13048
Total number of primitive shell pairs       ...     64615
Primitive shell pairs kept                  ...     30865
          la=0 lb=0:   3806 shell pairs
          la=1 lb=0:   4758 shell pairs
          la=1 lb=1:   1561 shell pairs
          la=2 lb=0:   1670 shell pairs
          la=2 lb=1:   1074 shell pairs
          la=2 lb=2:    179 shell pairs

Calculating one electron integrals          ... done (  0.6 sec)
Calculating RI/J V-Matrix + Cholesky decomp.... done (  0.3 sec)
Calculating RI/C V-Matrix + Cholesky decomp.... done (  0.3 sec)
Calculating Nuclear repulsion               ... done (  0.0 sec) ENN=   1821.423448234853 Eh

Diagonalization of the overlap matrix:
Smallest eigenvalue                        ... 1.494e-04
Time for diagonalization                   ...    0.022 sec
Threshold for overlap eigenvalues          ... 1.000e-07
Number of eigenvalues below threshold      ... 0
Time for construction of square roots      ...    0.015 sec
Total time needed                          ...    0.050 sec

-------------------
DFT GRID GENERATION
-------------------

General Integration Accuracy     IntAcc      ... 4.959
Radial Grid Type                 RadialGrid  ... OptM3 with GC (2021)
Angular Grid (max. ang.)         AngularGrid ... 6 (Lebedev-590)
Angular grid pruning method      GridPruning ... 4 (adaptive)
Weight generation scheme         WeightScheme... mBecke (2022)
Basis function cutoff            BFCut       ... 1.0000e-10
Integration weight cutoff        WCut        ... 1.0000e-14
Partially contracted basis set               ... off
Rotationally invariant grid construction     ... off
Angular grids for H and He will be reduced by one unit

Total number of grid points                  ...   457649
Total number of batches                      ...     7168
Average number of points per batch           ...       63
Average number of grid points per atom       ...    12043

--------------------
COSX GRID GENERATION
--------------------

GRIDX 1
-------
General Integration Accuracy     IntAcc      ... 4.020
Radial Grid Type                 RadialGrid  ... OptM3 with GC (2021)
Angular Grid (max. ang.)         AngularGrid ... 2 (Lebedev-110)
Angular grid pruning method      GridPruning ... 4 (adaptive)
Weight generation scheme         WeightScheme... mBecke (2022)
Basis function cutoff            BFCut       ... 1.0000e-10
Integration weight cutoff        WCut        ... 1.0000e-14
Partially contracted basis set               ... on
Rotationally invariant grid construction     ... off
Angular grids for H and He will be reduced by one unit

Total number of grid points                  ...    52106
Total number of batches                      ...      424
Average number of points per batch           ...      122
Average number of grid points per atom       ...     1371
UseSFitting                                  ... on

GRIDX 2
-------
General Integration Accuracy     IntAcc      ... 4.338
Radial Grid Type                 RadialGrid  ... OptM3 with GC (2021)
Angular Grid (max. ang.)         AngularGrid ... 3 (Lebedev-194)
Angular grid pruning method      GridPruning ... 4 (adaptive)
Weight generation scheme         WeightScheme... mBecke (2022)
Basis function cutoff            BFCut       ... 1.0000e-10
Integration weight cutoff        WCut        ... 1.0000e-14
Partially contracted basis set               ... on
Rotationally invariant grid construction     ... off
Angular grids for H and He will be reduced by one unit

Total number of grid points                  ...   114251
Total number of batches                      ...      914
Average number of points per batch           ...      125
Average number of grid points per atom       ...     3007
UseSFitting                                  ... on

GRIDX 3
-------
General Integration Accuracy     IntAcc      ... 4.871
Radial Grid Type                 RadialGrid  ... OptM3 with GC (2021)
Angular Grid (max. ang.)         AngularGrid ... 4 (Lebedev-302)
Angular grid pruning method      GridPruning ... 4 (adaptive)
Weight generation scheme         WeightScheme... mBecke (2022)
Basis function cutoff            BFCut       ... 1.0000e-10
Integration weight cutoff        WCut        ... 1.0000e-14
Partially contracted basis set               ... on
Rotationally invariant grid construction     ... off
Angular grids for H and He will be reduced by one unit

Total number of grid points                  ...   210849
Total number of batches                      ...     1665
Average number of points per batch           ...      126
Average number of grid points per atom       ...     5549
UseSFitting                                  ... on
Initializing property integral containers    ... done (  0.0 sec)

SHARK setup successfully completed in   7.7 seconds

Maximum memory used throughout the entire STARTUP-calculation: 89.5 MB


           ************************************************************
           *        Program running with 104 parallel MPI-processes   *
           *              working on a common directory               *
           ************************************************************
-------------------------------------------------------------------------------
                                 ORCA GUESS
                   Start orbitals & Density for SCF / CASSCF
-------------------------------------------------------------------------------

------------
SCF SETTINGS
------------
Hamiltonian:
 Density Functional     Method          .... DFT(GTOs)
 Exchange Functional    Exchange        .... PBE
   PBE kappa parameter   XKappa         ....  0.804000
   PBE mue parameter    XMuePBE         ....  0.219520
 Correlation Functional Correlation     .... P86
 LDA part of GGA corr.  LDAOpt          .... VWN-5
 Gradients option       PostSCFGGA      .... off
 Hybrid DFT is turned on
   Fraction HF Exchange ScalHFX         ....  0.690000
   Scaling of DF-GGA-X  ScalDFX         ....  0.310000
   Scaling of DF-GGA-C  ScalDFC         ....  0.403800
   Scaling of DF-LDA-C  ScalLDAC        ....  0.403800
   Perturbative correction              ....  1.000000
 RI-approximation to the Coulomb term is turned on
   Number of AuxJ basis functions       .... 1330
   RIJ-COSX (HFX calculated with COS-X)).... on


General Settings:
 Integral files         IntName         .... compas3D_hc_c24h14_0pent_13_dz_ri
 Hartree-Fock type      HFTyp           .... RHF
 Total Charge           Charge          ....    0
 Multiplicity           Mult            ....    1
 Number of Electrons    NEL             ....  158
 Basis Dimension        Dim             ....  406
 Nuclear Repulsion      ENuc            ....   1821.4234482349 Eh

Convergence Acceleration:
 AO-DIIS                CNVDIIS         .... on
   Start iteration      DIISMaxIt       ....    12
   Startup error        DIISStart       ....  0.200000
   # of expansion vecs  DIISMaxEq       ....     5
   Bias factor          DIISBfac        ....   1.050
   Max. coefficient     DIISMaxC        ....  10.000
 MO-DIIS                CNVKDIIS        .... off
 Trust-Rad. Augm. Hess. CNVTRAH         .... auto
   Auto Start mean grad. ratio tolernc. ....  1.125000
   Auto Start start iteration           ....    50
   Auto Start num. interpolation iter.  ....    10
   Max. Number of Micro iterations      ....    24
   Max. Number of Macro iterations      .... Maxiter - #DIIS iter
   Number of Davidson start vectors     ....     2
   Converg. threshold    (grad. norm)   ....   5.000e-05
   Grad. Scal. Fac. for Micro threshold ....   0.100
   Minimum threshold for Micro iter.    ....   1.000e-02
   NR start threshold (gradient norm)   ....   1.000e-04
   Initial trust radius                 ....   0.400
   Minimum AH scaling param. (alpha)    ....   1.000
   Maximum AH scaling param. (alpha)    .... 1000.000
   Quad. conv. algorithm                .... NR
   White noise on init. David. guess    .... on
   Maximum white noise                  ....   0.010
   Pseudo random numbers                .... off
   Inactive MOs                         .... canonical
   Orbital update algorithm             .... Taylor
   Preconditioner                       .... Diag
   Full preconditioner red. dimension   ....   250
 SOSCF                  CNVSOSCF        .... on
   Start iteration      SOSCFMaxIt      ....   150
   Startup grad/error   SOSCFStart      ....  0.003300
   Hessian update       SOSCFHessUp     .... L-BFGS
 Level Shifting         CNVShift        .... on
   Level shift para.    LevelShift      ....    0.2500
   Turn off err/grad.   ShiftErr        ....    0.0010
 Zerner damping         CNVZerner       .... off
 Static damping         CNVDamp         .... on
   Fraction old density DampFac         ....    0.7000
   Max. Damping (<1)    DampMax         ....    0.9800
   Min. Damping (>=0)   DampMin         ....    0.0000
   Turn off err/grad.   DampErr         ....    0.1000

SCF Procedure:
 Maximum # iterations   MaxIter         ....   125
 SCF integral mode      SCFMode         .... Direct
   Integral package                     .... SHARK and LIBINT hybrid scheme
 Reset frequency        DirectResetFreq ....    20
 Integral Threshold     Thresh          ....  1.000e-10 Eh
 Primitive CutOff       TCut            ....  1.000e-11 Eh

Convergence Tolerance:
 Convergence Check Mode ConvCheckMode   .... Total+1el-Energy
 Convergence forced     ConvForced      .... 0
 Energy Change          TolE            ....  1.000e-06 Eh
 1-El. energy change                    ....  1.000e-03 Eh
 Orbital Gradient       TolG            ....  5.000e-05
 Orbital Rotation angle TolX            ....  5.000e-05
 DIIS Error             TolErr          ....  1.000e-06

------------------------------
INITIAL GUESS: MODEL POTENTIAL
------------------------------
Loading Hartree-Fock densities                     ... done
Calculating cut-offs                               ... done
Initializing the effective Hamiltonian             ... done
Setting up the integral package (SHARK)            ... done
Starting the Coulomb interaction                   ... done (   0.1 sec)
Making the grid                                    ... done (   0.4 sec)
Mapping shells                                     ... done
Starting the XC term evaluation                    ... done (   0.0 sec)
  promolecular density results
     # of electrons  =    157.998000085
     EX              =   -126.950181171
     EC              =      0.207356739
     EX+EC           =   -126.742824432
Transforming the Hamiltonian                       ... done (   0.0 sec)
Diagonalizing the Hamiltonian                      ... done (   0.0 sec)
Back transforming the eigenvectors                 ... done (   0.0 sec)
Now organizing SCF variables                       ... done
                      ------------------
                      INITIAL GUESS DONE (   0.8 sec)
                      ------------------
             **** ENERGY FILE WAS UPDATED (compas3D_hc_c24h14_0pent_13_dz_ri.en.tmp) ****
Finished Guess after  15.6 sec
Maximum memory used throughout the entire GUESS-calculation: 30.6 MB


           ************************************************************
           *        Program running with 104 parallel MPI-processes   *
           *              working on a common directory               *
           ************************************************************

-------------------------------------------------------------------------------------------
                                      ORCA LEAN-SCF
                              memory conserving SCF solver
-------------------------------------------------------------------------------------------

----------------------------------------D-I-I-S--------------------------------------------
Iteration    Energy (Eh)           Delta-E    RMSDP     MaxDP     DIISErr   Damp  Time(sec)
-------------------------------------------------------------------------------------------
               ***  Starting incremental Fock matrix formation  ***
    1    -918.1372383871853344     0.00e+00  3.54e-03  1.02e-01  1.11e-01  0.700   1.8
    2    -918.2785081142910713    -1.41e-01  2.69e-03  7.79e-02  7.24e-02  0.700   1.7
                               ***Turning on AO-DIIS***
    3    -918.3634427947399672    -8.49e-02  1.81e-03  5.27e-02  4.39e-02  0.700   5.2
    4    -918.4168688809304513    -5.34e-02  4.26e-03  1.24e-01  2.98e-02  0.000   1.7
                              *** Initializing SOSCF ***
---------------------------------------S-O-S-C-F--------------------------------------
Iteration    Energy (Eh)           Delta-E    RMSDP     MaxDP     MaxGrad    Time(sec)
--------------------------------------------------------------------------------------
    5    -918.5334414472454228    -1.17e-01  1.93e-04  4.84e-03  2.27e-03     1.7
               *** Restarting incremental Fock matrix formation ***
    6    -918.5337780527720497    -3.37e-04  1.14e-04  2.67e-03  1.36e-03     1.7
    7    -918.5338869643028374    -1.09e-04  1.02e-04  2.33e-03  1.00e-03     1.9
    8    -918.5339234543289422    -3.65e-05  3.95e-05  6.97e-04  5.05e-04     1.6
    9    -918.5339322909662769    -8.84e-06  1.35e-05  4.45e-04  6.00e-05     1.6
   10    -918.5339329252178686    -6.34e-07  4.98e-06  1.25e-04  5.34e-05     1.5
                 **** Energy Check signals convergence ****

               *****************************************************
               *                     SUCCESS                       *
               *           SCF CONVERGED AFTER  10 CYCLES          *
               *****************************************************

Recomputing exchange energy using gridx3       ... done (    0.794 sec)
Old exchange energy                            :    -89.220388554 Eh
New exchange energy                            :    -89.220368673 Eh
Exchange energy change after final integration :      0.000019882 Eh
Total energy after final integration           :   -918.533913043 Eh
             **** ENERGY FILE WAS UPDATED (compas3D_hc_c24h14_0pent_13_dz_ri.en.tmp) ****

----------------
TOTAL SCF ENERGY
----------------

Total Energy       :       -918.53391304347633 Eh          -24994.57847 eV

Components:
Nuclear Repulsion  :       1821.42344823485291 Eh           49563.45178 eV
Electronic Energy  :      -2739.95738116007078 Eh          -74558.03080 eV
One Electron Energy:      -4861.47786508855552 Eh         -132287.53808 eV
Two Electron Energy:       2121.52048392848474 Eh           57729.50728 eV

Virial components:
Potential Energy   :      -1830.24257269941268 Eh          -49803.43236 eV
Kinetic Energy     :        911.70865965593634 Eh           24808.85389 eV
Virial Ratio       :          2.00748622195836

DFT components:
N(Alpha)           :       79.000005891957 electrons
N(Beta)            :       79.000005891957 electrons
N(Total)           :      158.000011783914 electrons
E(X)               :      -39.921239578708 Eh       
E(C)               :       -2.354761274244 Eh       
E(XC)              :      -42.276000852952 Eh       

---------------
SCF CONVERGENCE
---------------

  Last Energy change         ...    6.3425e-07  Tolerance :   1.0000e-06
  Last MAX-Density change    ...    1.2530e-04  Tolerance :   1.0000e-05
  Last RMS-Density change    ...    4.9794e-06  Tolerance :   1.0000e-06
  Last DIIS Error            ...    2.2672e-03  Tolerance :   1.0000e-06
  Last Orbital Gradient      ...    5.3407e-05  Tolerance :   5.0000e-05
  Last Orbital Rotation      ...    1.4631e-04  Tolerance :   5.0000e-05


----------------
ORBITAL ENERGIES
----------------

  NO   OCC          E(Eh)            E(eV) 
   0   2.0000     -10.846741      -295.1548 
   1   2.0000     -10.843641      -295.0705 
   2   2.0000     -10.843217      -295.0589 
   3   2.0000     -10.842028      -295.0266 
   4   2.0000     -10.841154      -295.0028 
   5   2.0000     -10.840842      -294.9943 
   6   2.0000     -10.838908      -294.9417 
   7   2.0000     -10.838302      -294.9252 
   8   2.0000     -10.838132      -294.9206 
   9   2.0000     -10.837686      -294.9084 
  10   2.0000     -10.832338      -294.7629 
  11   2.0000     -10.832296      -294.7618 
  12   2.0000     -10.832244      -294.7604 
  13   2.0000     -10.832241      -294.7602 
  14   2.0000     -10.831785      -294.7479 
  15   2.0000     -10.831590      -294.7426 
  16   2.0000     -10.831432      -294.7383 
  17   2.0000     -10.831345      -294.7359 
  18   2.0000     -10.830983      -294.7260 
  19   2.0000     -10.830937      -294.7248 
  20   2.0000     -10.830630      -294.7164 
  21   2.0000     -10.830583      -294.7151 
  22   2.0000     -10.829979      -294.6987 
  23   2.0000     -10.829101      -294.6748 
  24   2.0000      -1.085337       -29.5335 
  25   2.0000      -1.057255       -28.7694 
  26   2.0000      -1.035246       -28.1705 
  27   2.0000      -1.005775       -27.3685 
  28   2.0000      -0.983726       -26.7685 
  29   2.0000      -0.974903       -26.5285 
  30   2.0000      -0.933671       -25.4065 
  31   2.0000      -0.911923       -24.8147 
  32   2.0000      -0.910044       -24.7636 
  33   2.0000      -0.898065       -24.4376 
  34   2.0000      -0.889444       -24.2030 
  35   2.0000      -0.844869       -22.9901 
  36   2.0000      -0.796883       -21.6843 
  37   2.0000      -0.774372       -21.0717 
  38   2.0000      -0.765670       -20.8349 
  39   2.0000      -0.762403       -20.7460 
  40   2.0000      -0.737917       -20.0797 
  41   2.0000      -0.723497       -19.6873 
  42   2.0000      -0.680204       -18.5093 
  43   2.0000      -0.672221       -18.2921 
  44   2.0000      -0.652627       -17.7589 
  45   2.0000      -0.639555       -17.4032 
  46   2.0000      -0.626199       -17.0398 
  47   2.0000      -0.612758       -16.6740 
  48   2.0000      -0.596301       -16.2262 
  49   2.0000      -0.579492       -15.7688 
  50   2.0000      -0.574186       -15.6244 
  51   2.0000      -0.571277       -15.5452 
  52   2.0000      -0.558961       -15.2101 
  53   2.0000      -0.544604       -14.8194 
  54   2.0000      -0.534556       -14.5460 
  55   2.0000      -0.532461       -14.4890 
  56   2.0000      -0.526172       -14.3179 
  57   2.0000      -0.517413       -14.0795 
  58   2.0000      -0.509980       -13.8773 
  59   2.0000      -0.505230       -13.7480 
  60   2.0000      -0.494492       -13.4558 
  61   2.0000      -0.484235       -13.1767 
  62   2.0000      -0.478862       -13.0305 
  63   2.0000      -0.476395       -12.9634 
  64   2.0000      -0.462878       -12.5955 
  65   2.0000      -0.453490       -12.3401 
  66   2.0000      -0.447163       -12.1679 
  67   2.0000      -0.438817       -11.9408 
  68   2.0000      -0.422700       -11.5023 
  69   2.0000      -0.417910       -11.3719 
  70   2.0000      -0.409403       -11.1404 
  71   2.0000      -0.394852       -10.7445 
  72   2.0000      -0.378299       -10.2940 
  73   2.0000      -0.341691        -9.2979 
  74   2.0000      -0.313013        -8.5175 
  75   2.0000      -0.301402        -8.2016 
  76   2.0000      -0.293362        -7.9828 
  77   2.0000      -0.285030        -7.7561 
  78   2.0000      -0.216866        -5.9012 
  79   0.0000      -0.022757        -0.6193 
  80   0.0000       0.042793         1.1645 
  81   0.0000       0.049571         1.3489 
  82   0.0000       0.064733         1.7615 
  83   0.0000       0.068063         1.8521 
  84   0.0000       0.100451         2.7334 
  85   0.0000       0.135848         3.6966 
  86   0.0000       0.142773         3.8851 
  87   0.0000       0.146300         3.9810 
  88   0.0000       0.153528         4.1777 
  89   0.0000       0.158566         4.3148 
*Only the first 10 virtual orbitals were printed.
-------
TIMINGS
-------

Total SCF time: 0 days 0 hours 0 min 36 sec 

Total time                  ....      36.324 sec
Sum of individual times     ....      36.189 sec  ( 99.6%)

SCF preparation             ....      14.638 sec  ( 40.3%)
Fock matrix formation       ....      16.985 sec  ( 46.8%)
  Startup                   ....       0.921 sec  (  5.4% of F)
  Split-RI-J                ....       2.177 sec  ( 12.8% of F)
  Chain of spheres X        ....       4.930 sec  ( 29.0% of F)
  XC integration            ....       7.569 sec  ( 44.6% of F)
    XC Preparation          ....       0.000 sec  (  0.0% of XC)
    Basis function eval.    ....       0.280 sec  (  3.7% of XC)
    Density eval.           ....       0.164 sec  (  2.2% of XC)
    XC-Functional eval.     ....       0.041 sec  (  0.5% of XC)
    XC-Potential eval.      ....       0.154 sec  (  2.0% of XC)
Diagonalization             ....       0.000 sec  (  0.0%)
Density matrix formation    ....       1.198 sec  (  3.3%)
Total Energy calculation    ....       0.777 sec  (  2.1%)
Population analysis         ....       0.000 sec  (  0.0%)
Orbital Transformation      ....       0.337 sec  (  0.9%)
Orbital Orthonormalization  ....       0.000 sec  (  0.0%)
DIIS solution               ....       1.322 sec  (  3.6%)
SOSCF solution              ....       0.873 sec  (  2.4%)
Finished LeanSCF after  36.7 sec

Maximum memory used throughout the entire LEANSCF-calculation: 71.2 MB


           ************************************************************
           *        Program running with 104 parallel MPI-processes   *
           *              working on a common directory               *
           ************************************************************

------------------------------------------------------------------------------
                                ORCA  MP2 
------------------------------------------------------------------------------


-------------
RI-MP2 ENERGY
-------------
Dimension of the orbital basis            ...  406
Dimension of the AuxC basis               ... 1348
Memory devoted to MP2                     ... 4096 MB   
Data format for matrix containers         ... DOUBLE
Compression type for matrix containers    ... UNCOMPRESSED
Scaling for aa/bb pairs                   ...   5.710e-02
Scaling for ab pairs                      ...   5.979e-01
Overall scaling of the MP2 energy         ...   1.000e+00

-----------------------
SHARK RI TRANSFORMATION
-----------------------

Number of basis functions                ...    406
Number of aux functions                  ...   1348
Number of operators                      ...      1
Generation of IJK                        ... NO
Generation of IAK                        ... YES
Generation of ABK                        ... NO
Orbital Range Operator  0:    0-  78 to   79- 405

Aux basis identifier                     ...   AUXC
Contraction scheme used                  ... SEGMENTED
Do orthogonalization                     ... YES
All operator combinations                ... NO
Transpose (ia|K)                         ... NO
Integral generator used                  ... LIBINT
Starting integral generation + trafo... 
Half trafo (segmented) done. Total time =  0.4 sec. integrals=  0.1 sec trafo=  0.0 sec
Integral generation and half transformation done (  0.4 sec)

Reading or making V^(-1/2)          ... done (  0.1 sec)
Sorting IAK integrals               ... done (  1.8 sec)

SHARK RI integral transformation done. Total time =  2.3 sec.

Opening buffers                              ... done

Starting loop over batches of integrals:

Operator 0  - window                       ... (  0- 78)x( 79-405)
Operator 0  - Memory available             ...  4096 MB
Operator 0  - Memory needed per MO         ...   3.4 MB
Operator 0  - Number of orbitals per batch ... 1
Operator 0  - Number of batches            ... 1

OPERATOR  0   PASS   0:  MOs     0 ...    0 +    1 ...    1 +    2 ...    2 +    3 ...    3
                            +    4 ...    4 +    5 ...    5 +    6 ...    6 +    7 ...    7
                            +    8 ...    8 +    9 ...    9 +   10 ...   10 +   11 ...   11
                            +   12 ...   12 +   13 ...   13 +   14 ...   14 +   15 ...   15
                            +   16 ...   16 +   17 ...   17 +   18 ...   18 +   19 ...   19
                            +   20 ...   20 +   21 ...   21 +   22 ...   22 +   23 ...   23
                            +   24 ...   24 +   25 ...   25 +   26 ...   26 +   27 ...   27
                            +   28 ...   28 +   29 ...   29 +   30 ...   30 +   31 ...   31
                            +   32 ...   32 +   33 ...   33 +   34 ...   34 +   35 ...   35
                            +   36 ...   36 +   37 ...   37 +   38 ...   38 +   39 ...   39
                            +   40 ...   40 +   41 ...   41 +   42 ...   42 +   43 ...   43
                            +   44 ...   44 +   45 ...   45 +   46 ...   46 +   47 ...   47
                            +   48 ...   48 +   49 ...   49 +   50 ...   50 +   51 ...   51
                            +   52 ...   52 +   53 ...   53 +   54 ...   54 +   55 ...   55
                            +   56 ...   56 +   57 ...   57 +   58 ...   58 +   59 ...   59
                            +   60 ...   60 +   61 ...   61 +   62 ...   62 +   63 ...   63
                            +   64 ...   64 +   65 ...   65 +   66 ...   66 +   67 ...   67
                            +   68 ...   68 +   69 ...   69 +   70 ...   70 +   71 ...   71
                            +   72 ...   72 +   73 ...   73 +   74 ...   74 +   75 ...   75
                            +   76 ...   76 +   77 ...   77 +   78 ...   78
  Reading integrals       ... ok
Time spent in pair loops =     0.717 sec

-----------------------------------------------
 RI-MP2 CORRELATION ENERGY:     -1.615063982 Eh
-----------------------------------------------


-------
TIMINGS
-------

Total time                :    3.612 sec
Integral trafo            :    2.424 sec ( 67.1%)
I/O of integrals          :    0.001 sec (  0.0%)
K(i,j) operators          :    0.007 sec (  0.2%)
T(i,j) pair energies      :    0.001 sec (  0.0%)
V**(-1/2)                 :    0.468 sec ( 12.9%)


---------------------------------------
MP2 TOTAL ENERGY:     -920.148977025 Eh
---------------------------------------

Maximum memory used throughout the entire MP2-calculation: 40.4 MB


-------------------------------------------------------------------------------
                          DFT DISPERSION CORRECTION                            
                                                                               
                                DFTD4 V3.4.0                                   
-------------------------------------------------------------------------------
The REV-DSD-PBEP86-2021 functional is recognized
A user input s6-coefficient scaling factor has been recognized
A user input a1-coefficient scaling factor has been recognized
A user input s8-coefficient scaling factor has been recognized
A user input a2-coefficient scaling factor has been recognized
A user input s9-coefficient scaling factor has been recognized
Active option DFTDOPT                   ...         5   

-------------------------   ----------------
Dispersion correction           -0.038350200
-------------------------   ----------------


-------------------------   --------------------
FINAL SINGLE POINT ENERGY      -920.187327225793
-------------------------   --------------------



           ************************************************************
           *        Program running with 104 parallel MPI-processes   *
           *              working on a common directory               *
           ************************************************************

------------------------------------------------------------------------------
                              ORCA PROPERTY CALCULATIONS
------------------------------------------------------------------------------

GBWName                                 ... compas3D_hc_c24h14_0pent_13_dz_ri.gbw
Number of atoms                         ...     38
Number of basis functions               ...    406
Max core memory                         ...   1024 MB

Electric properties:
Dipole moment                           ... YES
Quadrupole moment                       ...  NO
Static polarizability (Dipole/Dipole)   ...  NO
Static polarizability (Dipole/Quad.)    ...  NO
Static polarizability (Quad./Quad.)     ...  NO
Static polarizability (Velocity)        ...  NO

Atomic electric properties:
Dipole moment                           ...  NO
Quadrupole moment                       ...  NO
Static polarizability                   ...  NO

Choice of electric origin               ... Center of mass
Position of electric origin             ...    -0.085328    -0.002546    -0.028309

General magnetic properties:
Magnetizability                         ...  NO

EPR properties:
g-Tensor (aka g-matrix)                 ...  NO
Zero-Field splitting spin-orbit         ...  NO
Zero-field splitting spin-spin          ...  NO
Hyperfine couplings                     ...  NO (   0 nuclei)
Quadrupole couplings                    ...  NO (   0 nuclei)
Contact density                         ...  NO (   0 nuclei)

NMR properties:
Chemical shifts                         ...  NO (   0 nuclei)
Spin-rotation constants                 ...  NO (   0 nuclei)
Spin-spin couplings                     ...  NO (   0 nuclei,    0 pairs)

Choice of magnetic origin               ... GIAO
Position of magnetic origin             ...     0.000000     0.000000     0.000000

Properties with geometric perturbations:
SCF Hessian                             ...  NO
IR spectrum                             ...  NO
VCD spectrum                            ...  NO
X-ray spectroscopy properties:
SCF XES/XAS/RIXS spectra                ...  NO


-------------
DIPOLE MOMENT
-------------

Method             : SCF
Type of density    : Electron Density
Multiplicity       :   1
Irrep              :   0
Energy             :  -918.5339130434763319 Eh
Relativity type    : 
Basis              : AO
                                X                 Y                 Z
Electronic contribution:     -1.765758025      -0.032711971      -0.572174480
Nuclear contribution   :      1.755180800       0.054476718       0.584012997
                        -----------------------------------------
Total Dipole Moment    :     -0.010577225       0.021764747       0.011838517
                        -----------------------------------------
Magnitude (a.u.)       :      0.026939421
Magnitude (Debye)      :      0.068474566



--------------------
Rotational spectrum 
--------------------
 
Rotational constants in cm-1:             0.012971             0.007750             0.004992 
Rotational constants in MHz :           388.874490           232.333506           149.641929 

Dipole components along the rotational axes: 
x,y,z [a.u.] :     0.020837    -0.000845     0.017054 
x,y,z [Debye]:     0.052963    -0.002147     0.043349 

 

Dipole moment calculation done in   0.1 sec 

Maximum memory used throughout the entire PROP-calculation: 24.8 MB

--------------------------------
SUGGESTED CITATIONS FOR THIS RUN
--------------------------------

Below you find a list of papers that are relevant to this ORCA run
We neither can nor want to force you to cite these papers, but we appreciate if you do
You receive ORCA, which is the product of decades of hard work by many enthusiastic individuals, for free
The only thing we kindly ask in return is that you cite our papers,
We deeply appreciate it, if you show your appreciation for ORCA by not just citing the generic ORCA reference.

Please note that relegating all ORCA citations to the supporting information does *not* help us.
SI sections are not indexed - citations you put there will not count into any citation statistics
But we need these citations in order to attract the funding resources that allow us to do what we are doing

Therefore, if you are a happy ORCA user, please consider citing a few of the papers listed below in the main body of your paper

In addition to the list printed below, the program has created the file compas3D_hc_c24h14_0pent_13_dz_ri.bibtex that contains the list in bibtex format
You can import this file easily into all common literature databanks and citation aid programs


List of essential papers. We consider these as the minimum necessary citations

  1. Neese,F.
     Software update: the ORCA program system, version 5.0
     WIRES Comput. Molec. Sci., 2022 12(1)e1606
     doi.org/10.1002/wcms.1606

List of papers to cite with high priority. The work reported in these papers was absolutely
necessary for this run to complete.
Our perspective: the developers of density functionals and basis sets usually get cited in chemistry papers
Good! But without the algorithms to do something with them, the functionals or basis sets would not do anything.
Hence, in our opinion, the algorithm design and method developments papers are equally worthy of getting cited

  1. Neese,F.
     An improvement of the resolution of the identity approximation for the formation of the Coulomb matrix
     J. Comp. Chem., 2003 24(14)1740-1747
     doi.org/10.1002/jcc.10318
  2. Neese,F.; Wennmohs,F.; Hansen,A.; Becker,U.
     Efficient, approximate and parallel Hartree-Fock and hybrid DFT calculations. A 'chain-of-spheres' algorithm for the Hartree-Fock exchange
     Chem. Phys., 2009 356(1-3)98-109
     doi.org/10.1016/j.chemphys.2008.10.036
  3. Kossmann,S.; Neese,F.
     Efficient Structure Optimization with Second-Order Many-Body Perturbation Theory: The RIJCOSX-MP2 Method
     J. Theo. Comp. Chem., 2010 6 2325-2338
     doi.org/10.1021/ct100199k
  4. Helmich-Paris,B.; de Souza,B.; Neese,F.; Izsák,R.
     An improved chain of spheres for exchange algorithm
     J. Chem. Phys., 2021 155 104109
     doi.org/doi: 10.1063/5.0058766.
  5. Neese,F.
     The SHARK Integral Generation and Digestion System
     J. Comp. Chem., 2022  1-16
     doi.org/10.1002/jcc.26942
  6. Caldeweyher,E.; Bannwarth,C.; Grimme,S.
     Extension of the D3 dispersion coefficient model
     J. Chem. Phys., 2017 147 034112
     doi.org/10.1063/1.4993215
  7. Caldeweyher,E.; Ehlert,S.; Hansen,A.; Neugebauer,H.; Spicher,S.; Bannwarth,C.; Grimme,S.
     A generally applicable atomic-charge dependent London dispersion correction
     J. Chem. Phys., 2019 150 154122
     doi.org/10.1063/1.5090222
  8. Caldeweyher,E.; Mewes,J.; Ehlert,S.; Grimme,S.
     Extension and evaluation of the D4 London-dispersion model for periodic systems
     Phys. Chem. Chem. Phys., 2020 22(16)8499-8512
     doi.org/10.1039/D0CP00502A
  9. Wittmann,L.; Gordiy,I.; Friede,M.; Helmich-Paris,B.; Grimme,S.; Hansen,A.; Bursch,M.
     Extension of the D3 and D4 London Dispersion Corrections to the full Actinides Series
     Phys. Chem. Chem. Phys., 2024 26(32)21379-21394
     doi.org/https://doi.org/10.1039/D4CP01514B 

List of suggested additional citations. These are papers that are important in the 'surrounding' of 
of this run, or papers that preceded the highly important papers. If you like your results we are grateful for a citation.

  1. Izsak,R.; Neese,F.
     An overlap fitted chain of spheres exchange method
     J. Chem. Phys., 2011 135 144105
     doi.org/10.1063/1.3646921
  2. Izsak,R.; Hansen,A.; Neese,F.
     The resolution of identity and chain of spheres approximations for the LPNO-CCSD singles Fock term
     Molec. Phys., 2012 110 2413-2417
     doi.org/10.1080/00268976.2012.687466
  3. Neese,F.
     The ORCA program system
     WIRES Comput. Molec. Sci., 2012 2(1)73-78
     doi.org/10.1002/wcms.81
  4. Izsak,R.; Neese,F.; Klopper,W.
     Robust fitting techniques in the chain of spheres approximation to the Fock exchange: The role of the complementary space
     J. Chem. Phys., 2013 139 
     doi.org/10.1063/1.4819264
  5. Neese,F.
     Software update: the ORCA program system, version 4.0
     WIRES Comput. Molec. Sci., 2018 8(1)1-6
     doi.org/10.1002/wcms.1327
  6. Neese,F.; Wennmohs,F.; Becker,U.; Riplinger,C.
     The ORCA quantum chemistry program package
     J. Chem. Phys., 2020 152 Art. No. L224108
     doi.org/10.1063/5.0004608

List of optional additional citations

  1. Neese,F.
     Approximate second-order SCF convergence for spin unrestricted wavefunctions
     Chem. Phys. Lett., 2000 325(1-3)93-98
     doi.org/10.1016/s0009-2614(00)00662-x

Timings for individual modules:

Sum of individual times          ...      118.833 sec (=   1.981 min)
Startup calculation              ...       27.062 sec (=   0.451 min)  22.8 %
SCF iterations                   ...       55.500 sec (=   0.925 min)  46.7 %
Property calculations            ...       16.166 sec (=   0.269 min)  13.6 %
MP2 module                       ...       20.105 sec (=   0.335 min)  16.9 %
                             ****ORCA TERMINATED NORMALLY****
TOTAL RUN TIME: 0 days 0 hours 2 minutes 28 seconds 479 msec
