
                                 *****************
                                 * O   R   C   A *
                                 *****************

                                            #,                                       
                                            ###                                      
                                            ####                                     
                                            #####                                    
                                            ######                                   
                                           ########,                                 
                                     ,,################,,,,,                         
                               ,,#################################,,                 
                          ,,##########################################,,             
                       ,#########################################, ''#####,          
                    ,#############################################,,   '####,        
                  ,##################################################,,,,####,       
                ,###########''''           ''''###############################       
              ,#####''   ,,,,##########,,,,          '''####'''          '####       
            ,##' ,,,,###########################,,,                        '##       
           ' ,,###''''                  '''############,,,                           
         ,,##''                                '''############,,,,        ,,,,,,###''
      ,#''                                            '''#######################'''  
     '                                                          ''''####''''         
             ,#######,   #######,   ,#######,      ##                                
            ,#'     '#,  ##    ##  ,#'     '#,    #''#        ,####,   ,####,        
            ##       ##  ##   ,#'  ##            #'  '#       #'       #'  '#        
            ##       ##  #######   ##           ,######,      #####,   #    #        
            '#,     ,#'  ##    ##  '#,     ,#' ,#      #,     #,   #   #,  ,#        
             '#######'   ##     ##  '#######'  #'      '#     '####' # '####'        



                #########################################################
                #                        -***-                          #
                #          Department of theory and spectroscopy        #
                #                                                       #
                #                      Frank Neese                      #
                #                                                       #
                #     Directorship, Architecture, Infrastructure        #
                #                    SHARK, DRIVERS                     #
                #        Core code/Algorithms in most modules           #
                #                                                       #
                #        Max Planck Institute fuer Kohlenforschung      #
                #                Kaiser Wilhelm Platz 1                 #
                #                 D-45470 Muelheim/Ruhr                 #
                #                      Germany                          #
                #                                                       #
                #                  All rights reserved                  #
                #                        -***-                          #
                #########################################################


                         Program Version 6.0.1  -  RELEASE   -


 With contributions from (in alphabetic order):
[Max-Planck-Institut fuer Kohlenforschung]                               
  Daniel Aravena         : Magnetic Suceptibility                        
  Michael Atanasov       : Ab Initio Ligand Field Theory (pilot matlab implementation)
  Alexander A. Auer      : GIAO ZORA, VPT2 properties, NMR spectrum      
  Ute Becker             : All parallelization in ORCA, NUMFREQ, NUMCALC 
  Giovanni Bistoni       : ED, misc. LED, open-shell LED, HFLD           
  Martin Brehm           : Molecular dynamics                            
  Dmytro Bykov           : pre 5.0 version of the SCF Hessian            
  Marcos Casanova-Páez   : Triplet and SCS-CIS(D). UHF-(DLPNO)-IP/EA/STEOM-CCSD. UHF-CVS-IP/STEOM-CCSD   
  Vijay G. Chilkuri      : MRCI spin determinant printing, contributions to CSF-ICE 
  Pauline Colinet        : FMM embedding                                 
  Dipayan Datta          : RHF DLPNO-CCSD density                        
  Achintya Kumar Dutta   : EOM-CC, STEOM-CC                              
  Nicolas Foglia         : Exact transition moments, OPA infrastructure, MCD improvements    
  Dmitry Ganyushin       : Spin-Orbit,Spin-Spin,Magnetic field MRCI      
  Miquel Garcia-Rates    : C-PCM and meta-GGA Hessian, CCSD/C-PCM, Gaussian charge scheme 
  Tiago L. C. Gouveia    : GS-ROHF, GS-ROCIS                             
  Yang Guo               : DLPNO-NEVPT2, F12-NEVPT2, CIM, IAO-localization        
  Andreas Hansen         : Spin unrestricted coupled pair/coupled cluster methods 
  Ingolf Harden          : AUTO-CI MPn and infrastructure                
  Benjamin Helmich-Paris : MC-RPA, TRAH-(SCF,CASSCF), AVAS, COSX integrals, SCF dyn. polar. 
  Lee Huntington         : MR-EOM, pCC                                   
  Robert Izsak           : Overlap fitted RIJCOSX, COSX-SCS-MP3, EOM     
  Riya Kayal             : Wick's Theorem for AUTO-CI, AUTO-CI UHF-CCSDT 
  Emily Kempfer          : AUTO-CI, RHF CISDT and CCSDT                  
  Christian Kollmar      : KDIIS, OOCD, Brueckner-CCSD(T), CCSD density, CASPT2, CASPT2-K, improved NEVPT2 
  Axel Koslowski         : Symmetry handling                             
  Simone Kossmann        : meta-GGA functionals, TD-DFT gradient, OOMP2, (MP2 Hessian; deprecated post 5.0) 
  Lucas Lang             : DCDCAS                                        
  Marvin Lechner         : AUTO-CI (C++ implementation), FIC-MRCC        
  Spencer Leger          : CASSCF response                               
  Dagmar Lenk            : GEPOL surface, SMD, ORCA-2-JSON               
  Dimitrios Liakos       : Extrapolation schemes; Compound Job, initial MDCI parallelization 
  Dimitrios Manganas     : Further ROCIS development; embedding schemes. LFT, Crystal Embedding 
  Dimitrios Pantazis     : SARC Basis sets                               
  Anastasios Papadopoulos: AUTO-CI, single reference methods and gradients 
  Taras Petrenko         : pre 6.0 DFT Hessian and TD-DFT gradient, (ASA, deprecated), ECA, 1-Electron XAS/XES, NRVS 
  Peter Pinski           : DLPNO-MP2, DLPNO-MP2 Gradient                 
  Christoph Reimann      : Effective Core Potentials                     
  Marius Retegan         : Local ZFS, SOC                                
  Christoph Riplinger    : Optimizer, TS searches, QM/MM, DLPNO-CCSD(T), (RO)-DLPNO pert. Triples 
  Michael Roemelt        : Original ROCIS implementation                 
  Masaaki Saitow         : Open-shell DLPNO-CCSD energy and density      
  Barbara Sandhoefer     : DKH picture change effects                    
  Kantharuban Sivalingam : CASSCF convergence/infrastructure, NEVPT2 and variants, FIC-MRCI 
  Bernardo de Souza      : ESD, SOC TD-DFT                               
  Georgi L. Stoychev     : AutoAux, RI-MP2 NMR, DLPNO-MP2 response, X2C  
  Van Anh Tran           : RI-MP2 g-tensors                              
  Willem Van den Heuvel  : Paramagnetic NMR                              
  Zikuan Wang            : NOTCH, Electric field optimization            
  Frank Wennmohs         : Technical directorship and infrastructure     
  Hang Xu                : AUTO-CI-Response properties                   
                                                                         
[FACCTs GmbH]                                                            
  Markus Bursch, Miquel Garcia-Rates, Christoph Riplinger, Bernardo de Souza, Georgi L. Stoychev 
                                                                 
  APM, Basis sets (HGBS, AHGBS, def-TZVP (Ac-Lr), def2-XVPD (La-Lu)), CI-OPT, improved COSX, DLPNO-Multilevel,           
  DOCKER, DRACO, updates on ESD, GOAT, IRC, LR-CPCM, MBIS, meta-GGA TD-DFT gradient, ML-optimized integration grids, 
  MM, NACMEs, nearIR, NEB, NEB-TS, NL-DFT gradient (VV10), 2- and 3-layer-ONIOM, interface openCOSMO-RS, QMMM,   
  Crystal-QMMM, SF, symmetry and pop. for TD-DFT, r2SCAN hybrids, SOLVATOR                                   
                                                                         
[Other institutions]                                                     
  V. Asgeirsson          : NEB                                           
  Christoph Bannwarth    : sTDA-DFT, sTD-DFT, PBEh-3c, B97-3c, D3        
  Sebastian Ehlert       : rSCAN, r2SCAN, r2SCAN-3c, D4, dhf basis sets  
  Marvin Friede          : D4 for Fr, Ra, Ac-Lr                          
  Lars Goerigk           : TD-DFT with DH, B97 family of functionals     
  Stefan Grimme          : VdW corrections, initial TS optimization, DFT functionals, gCP, sTDA/sTD-DF 
  Waldemar Hujo          : DFT-NL                                        
  H. Jonsson             : NEB                                           
  Holger Kruse           : gCP                                           
  Marcel Mueller         : wB97X-3c, vDZP basis set                      
  Hagen Neugebauer       : wr2SCAN                                       
  Tobias Risthaus        : range-separated hybrid DFT                    
  Lukas Wittmann         : regularized MP2, r2SCAN double-hybrids, wr2SCAN        
                                                                         
We gratefully acknowledge several colleagues who have allowed us to      
interface, adapt or use parts of their codes:                            
  Ed Valeev, F. Pavosevic, A. Kumar             : LibInt (2-el integral package), F12 methods 
  Garnet Chan, S. Sharma, J. Yang, R. Olivares  : DMRG                   
  Ulf Ekstrom                                   : XCFun DFT Library      
  Mihaly Kallay                                 : mrcc  (arbitrary order and MRCC methods)
  Frank Weinhold                                : gennbo (NPA and NBO analysis)           
  Simon Mueller                                 : openCOSMO-RS                            
  Christopher J. Cramer and Donald G. Truhlar   : smd solvation model                     
  S Lehtola, MJT Oliveira, MAL Marques          : LibXC Library                           
  Liviu Ungur et al                             : ANISO software                          


 Your calculation uses the libint2 library for the computation of 2-el integrals
 For citations please refer to: http://libint.valeyev.net

 Your ORCA version has been built with support for libXC version: 6.2.2
 For citations please refer to: https://libxc.gitlab.io

 This ORCA versions uses:
   CBLAS   interface :  Fast vector & matrix operations
   LAPACKE interface :  Fast linear algebra routines
   SCALAPACK package :  Parallel linear algebra routines
   Shared memory     :  Shared parallel matrices
   BLAS/LAPACK       :  OpenBLAS 0.3.27  USE64BITINT DYNAMIC_ARCH NO_AFFINITY SapphireRapids SINGLE_THREADED
        Core in use  :  SapphireRapids
   Copyright (c) 2011-2014, The OpenBLAS Project


Warning! Weird basis set assignment to AuxJK basis!


***************************************
The coordinates will be read from file: /g/data/kx58/rs2200/dhdft/inputs/compas3x-xyzs/hc_c34h16_0pent_1.xyz
***************************************


Your calculation utilizes the atom-pairwise dispersion correction
based on EEQ partial charges (D4)


================================================================================

----- Orbital basis set information -----
Your calculation utilizes the basis: def2-QZVPP
   F. Weigend and R. Ahlrichs, Phys. Chem. Chem. Phys. 7, 3297 (2005).

----- AuxC basis set information -----
Your calculation utilizes the auxiliary basis: def2-QZVPP/C
  H-La, Hf-Rn : A. Hellweg, C. Hattig, S. Hofener and W. Klopper, Theor. Chem. Acc. 117, 587 (2007).
        Ce-Lu : J. Chmela and M. E. Harding, Mol. Phys. (2018).

----- AuxJK basis set information -----
Your calculation utilizes the auxiliary basis: def2-QZVPP/C
  H-La, Hf-Rn : A. Hellweg, C. Hattig, S. Hofener and W. Klopper, Theor. Chem. Acc. 117, 587 (2007).
        Ce-Lu : J. Chmela and M. E. Harding, Mol. Phys. (2018).

================================================================================
                                        WARNINGS
                       Please study these warnings very carefully!
================================================================================


WARNING: No MP2 level density has been requested!
         To calculate MP2 level properties use
         %mp2 Density relaxed end
         or
         %mp2 Density unrelaxed end
         Otherwise for double-hybrid DFT only the energy is correct!

================================================================================
                                       INPUT FILE
================================================================================
NAME = compas3x_hc_c34h16_0pent_1_qz_riri.inp
|  1> ! RKS revDSD-PBEP86-D4/2021 defgrid3  RIJK NOPOP NoFrozencore NoUseSym
|  2> 
|  3> %basis
|  4> Basis "def2-QZVPP"
|  5> AuxJK "def2-QZVPP/C"
|  6> AuxC "def2-QZVPP/C"
|  7> end
|  8> 
|  9> %method
| 10> ScalHFX 0.69
| 11> ScalDFX 0.31
| 12> ScalDFC 0.4038
| 13> ScalLDAC 0.4038
| 14> 
| 15> D4S6 0.4612
| 16> D4S8 0.0
| 17> D4A1 0.44
| 18> D4A2 3.60
| 19> end
| 20> 
| 21> %mp2
| 22> PS 0.5979
| 23> PT 0.0571
| 24> 
| 25> end
| 26> 
| 27> %pal
| 28> nprocs 104
| 29> end
| 30> 
| 31> *XYZFILE 0 1 /g/data/kx58/rs2200/dhdft/inputs/compas3x-xyzs/hc_c34h16_0pent_1.xyz
| 32> 
| 33>                          ****END OF INPUT****
================================================================================

                       ****************************
                       * Single Point Calculation *
                       ****************************

---------------------------------
CARTESIAN COORDINATES (ANGSTROEM)
---------------------------------
  C      1.299846   -1.162131   -0.018355
  C     -0.054849   -0.731360    0.001173
  C     -0.354688    0.642148   -0.001323
  C      0.697261    1.598286    0.017289
  C      2.043851    1.174993    0.023765
  C      2.347523   -0.216172   -0.025825
  C      1.600367   -2.555017   -0.040171
  C      0.570646   -3.525344    0.004500
  C     -0.808676   -3.084904    0.094034
  C     -1.106512   -1.700573    0.044836
  C     -2.455345   -1.274087    0.062454
  C     -2.763024    0.135106   -0.060601
  C     -1.714621    1.084912   -0.043940
  C     -2.020836    2.467422   -0.092942
  C     -0.950467    3.442620   -0.004431
  C      0.389986    2.989696    0.039223
  C      3.686758   -0.686643   -0.091080
  C      3.976464   -2.008142   -0.137281
  C      2.948757   -2.983466   -0.107341
  C     -1.853501   -3.994670    0.234242
  C     -3.164325   -3.568591    0.310130
  C     -3.463740   -2.227526    0.213170
  C     -4.077146    0.581548   -0.210240
  C     -4.363947    1.925389   -0.306902
  C     -3.349882    2.858989   -0.231887
  C      3.252684   -4.348418   -0.147807
  C      2.243033   -5.279891   -0.125266
  C      0.919843   -4.871460   -0.048484
  C      1.437209    3.941098    0.105510
  C      2.777901    3.482794    0.134435
  C      3.065237    2.160781    0.088114
  C     -1.193964    4.811809    0.048545
  C     -0.161300    5.734512    0.124482
  C      1.144694    5.308537    0.146113
  H      4.501146    0.018245   -0.118762
  H      5.001753   -2.344709   -0.196826
  H     -1.655341   -5.051512    0.302755
  H     -3.957626   -4.289991    0.441269
  H     -4.496763   -1.928435    0.277193
  H     -4.891588   -0.120849   -0.273596
  H     -5.385837    2.250558   -0.437098
  H     -3.610269    3.902266   -0.300072
  H      4.287332   -4.654976   -0.200389
  H      2.473017   -6.334694   -0.165571
  H      0.158930   -5.634692   -0.038274
  H      3.569699    4.216027    0.193303
  H      4.099313    1.859411    0.115001
  H     -2.203723    5.188519    0.039002
  H     -0.391784    6.789202    0.164862
  H      1.957502    6.018383    0.198064

----------------------------
CARTESIAN COORDINATES (A.U.)
----------------------------
  NO LB      ZA    FRAG     MASS         X           Y           Z
   0 C     6.0000    0    12.011    2.456353   -2.196109   -0.034686
   1 C     6.0000    0    12.011   -0.103650   -1.382070    0.002217
   2 C     6.0000    0    12.011   -0.670263    1.213483   -0.002500
   3 C     6.0000    0    12.011    1.317633    3.020323    0.032672
   4 C     6.0000    0    12.011    3.862319    2.220416    0.044910
   5 C     6.0000    0    12.011    4.436176   -0.408506   -0.048801
   6 C     6.0000    0    12.011    3.024255   -4.828282   -0.075913
   7 C     6.0000    0    12.011    1.078364   -6.661935    0.008504
   8 C     6.0000    0    12.011   -1.528176   -5.829625    0.177698
   9 C     6.0000    0    12.011   -2.091005   -3.213617    0.084728
  10 C     6.0000    0    12.011   -4.639930   -2.407675    0.118021
  11 C     6.0000    0    12.011   -5.221358    0.255313   -0.114520
  12 C     6.0000    0    12.011   -3.240165    2.050187   -0.083034
  13 C     6.0000    0    12.011   -3.818826    4.662752   -0.175635
  14 C     6.0000    0    12.011   -1.796122    6.505610   -0.008374
  15 C     6.0000    0    12.011    0.736966    5.649707    0.074120
  16 C     6.0000    0    12.011    6.966962   -1.297566   -0.172116
  17 C     6.0000    0    12.011    7.514428   -3.794839   -0.259424
  18 C     6.0000    0    12.011    5.572344   -5.637934   -0.202845
  19 C     6.0000    0    12.011   -3.502609   -7.548833    0.442653
  20 C     6.0000    0    12.011   -5.979708   -6.743659    0.586061
  21 C     6.0000    0    12.011   -6.545520   -4.209414    0.402833
  22 C     6.0000    0    12.011   -7.704690    1.098967   -0.397297
  23 C     6.0000    0    12.011   -8.246665    3.638459   -0.579962
  24 C     6.0000    0    12.011   -6.330359    5.402707   -0.438203
  25 C     6.0000    0    12.011    6.146683   -8.217320   -0.279315
  26 C     6.0000    0    12.011    4.238717   -9.977548   -0.236719
  27 C     6.0000    0    12.011    1.738251   -9.205725   -0.091621
  28 C     6.0000    0    12.011    2.715932    7.447597    0.199385
  29 C     6.0000    0    12.011    5.249472    6.581527    0.254046
  30 C     6.0000    0    12.011    5.792459    4.083285    0.166511
  31 C     6.0000    0    12.011   -2.256265    9.093001    0.091737
  32 C     6.0000    0    12.011   -0.304813   10.836657    0.235237
  33 C     6.0000    0    12.011    2.163159   10.031682    0.276114
  34 H     1.0000    0     1.008    8.505932    0.034477   -0.224427
  35 H     1.0000    0     1.008    9.451944   -4.430859   -0.371947
  36 H     1.0000    0     1.008   -3.128140   -9.545975    0.572123
  37 H     1.0000    0     1.008   -7.478829   -8.106909    0.833878
  38 H     1.0000    0     1.008   -8.497651   -3.644214    0.523818
  39 H     1.0000    0     1.008   -9.243762   -0.228372   -0.517022
  40 H     1.0000    0     1.008  -10.177756    4.252938   -0.825996
  41 H     1.0000    0     1.008   -6.822420    7.374214   -0.567054
  42 H     1.0000    0     1.008    8.101883   -8.796630   -0.378681
  43 H     1.0000    0     1.008    4.673325  -11.970836   -0.312883
  44 H     1.0000    0     1.008    0.300335  -10.648024   -0.072328
  45 H     1.0000    0     1.008    6.745753    7.967136    0.365290
  46 H     1.0000    0     1.008    7.746579    3.513777    0.217320
  47 H     1.0000    0     1.008   -4.164432    9.804881    0.073703
  48 H     1.0000    0     1.008   -0.740365   12.829732    0.311544
  49 H     1.0000    0     1.008    3.699144   11.373095    0.374287

--------------------------------
INTERNAL COORDINATES (ANGSTROEM)
--------------------------------
 C      0   0   0     0.000000000000     0.00000000     0.00000000
 C      1   0   0     1.421669540524     0.00000000     0.00000000
 C      2   1   0     1.405856705797   119.94956166     0.00000000
 C      3   2   1     1.421669338564   119.94939131   358.10865883
 C      4   3   2     1.411567828114   120.28218224     0.68329774
 C      1   2   3     1.411567086753   120.28219655     0.67942402
 C      1   2   3     1.425103479834   119.82189971   181.13085089
 C      7   1   2     1.415576040416   121.07027504   357.76376001
 C      8   7   1     1.450700464466   119.04313166   359.07129693
 C      9   8   7     1.416862824288   119.62729765     4.20729529
 C     10   9   8     1.414762067183   119.63763008   176.74460594
 C     11  10   9     1.447629843523   119.67152514   183.32735094
 C     12  11  10     1.414764218921   119.67139814   352.82195087
 C     13  12  11     1.416863707363   119.63762203   183.33629144
 C     14  13  12     1.450701487650   119.62727651   176.74670218
 C     15  14  13     1.415577169618   119.04326483     4.19964036
 C      6   1   2     1.420967637758   118.54702030   182.09724065
 C     17   6   1     1.353671206200   121.76898680   359.58394542
 C      7   1   2     1.416417477457   119.80991372   177.77428164
 C      9   8   7     1.392476699470   121.41767708   184.50925463
 C     20   9   8     1.380421284789   121.08977070   180.42248381
 C     21  20   9     1.377499545900   120.20054092     1.67298052
 C     12  11  10     1.395929830821   121.36725103   172.14519701
 C     23  12  11     1.377500361174   121.03268019   179.03117994
 C     24  23  12     1.380421859527   120.20055217   358.79802401
 C     19   7   1     1.398965284848   120.22006401   180.88216364
 C     26  19   7     1.373879896994   120.09085108     0.13240558
 C     27  26  19     1.386918384514   120.15705637   359.33690832
 C     16  15  14     1.416417334883   119.11988253   179.06630021
 C     29  16  15     1.417157009486   118.89359094   180.67371916
 C     30  29  16     1.353670924942   121.06076967     0.57668111
 C     15  14  13     1.391680586485   122.31598088   184.64981358
 C     32  15  14     1.386918213136   121.75892992   180.41817102
 C     33  32  15     1.373879029093   120.15703835     0.15641022
 H     17   6   1     1.077432174324   119.79865085   178.72273514
 H     18  17   6     1.080759249625   120.59243020   179.37202552
 H     20   9   8     1.077439531579   120.61429843     1.44677561
 H     21  20   9     1.080251149306   119.86055276   181.38309836
 H     22  21  20     1.077353682430   118.32732843   180.05067760
 H     23  12  11     1.077354202779   120.62761269   357.74748910
 H     24  23  12     1.080251751241   119.93842703   179.08957093
 H     25  24  23     1.077439860305   118.28759896   180.67579602
 H     26  19   7     1.080387698118   119.09836843   179.90996500
 H     27  26  19     1.080336115973   120.32509560   179.43321208
 H     28  27  26     1.077782258533   117.74522799   179.70000251
 H     30  29  16     1.080759152093   118.34672913   180.49853700
 H     31  30  29     1.077431945091   118.42705283   180.14130492
 H     32  15  14     1.077781928811   120.49488957     0.88493009
 H     33  32  15     1.080335382857   119.51770708   180.06177507
 H     34  33  32     1.080387294865   120.81054219   179.56522865

---------------------------
INTERNAL COORDINATES (A.U.)
---------------------------
 C      0   0   0     0.000000000000     0.00000000     0.00000000
 C      1   0   0     2.686566084529     0.00000000     0.00000000
 C      2   1   0     2.656684157494   119.94956166     0.00000000
 C      3   2   1     2.686565702879   119.94939131   358.10865883
 C      4   3   2     2.667476614590   120.28218224     0.68329774
 C      1   2   3     2.667475213621   120.28219655     0.67942402
 C      1   2   3     2.693055289385   119.82189971   181.13085089
 C      7   1   2     2.675051038127   121.07027504   357.76376001
 C      8   7   1     2.741426580194   119.04313166   359.07129693
 C      9   8   7     2.677482707239   119.62729765     4.20729529
 C     10   9   8     2.673512851637   119.63763008   176.74460594
 C     11  10   9     2.735623947549   119.67152514   183.32735094
 C     12  11  10     2.673516917832   119.67139814   352.82195087
 C     13  12  11     2.677484376009   119.63762203   183.33629144
 C     14  13  12     2.741428513731   119.62727651   176.74670218
 C     15  14  13     2.675053172009   119.04326483     4.19964036
 C      6   1   2     2.685239680528   118.54702030   182.09724065
 C     17   6   1     2.558067855093   121.76898680   359.58394542
 C      7   1   2     2.676641123693   119.80991372   177.77428164
 C      9   8   7     2.631399609866   121.41767708   184.50925463
 C     20   9   8     2.608618177687   121.08977070   180.42248381
 C     21  20   9     2.603096891353   120.20054092     1.67298052
 C     12  11  10     2.637925082422   121.36725103   172.14519701
 C     23  12  11     2.603098431996   121.03268019   179.03117994
 C     24  23  12     2.608619263784   120.20055217   358.79802401
 C     19   7   1     2.643661259226   120.22006401   180.88216364
 C     26  19   7     2.596256746220   120.09085108     0.13240558
 C     27  26  19     2.620895916831   120.15705637   359.33690832
 C     16  15  14     2.676640854267   119.11988253   179.06630021
 C     29  16  15     2.678038636696   118.89359094   180.67371916
 C     30  29  16     2.558067323593   121.06076967     0.57668111
 C     15  14  13     2.629895174351   122.31598088   184.64981358
 C     32  15  14     2.620895592974   121.75892992   180.41817102
 C     33  32  15     2.596255106124   120.15703835     0.15641022
 H     17   6   1     2.036051737348   119.79865085   178.72273514
 H     18  17   6     2.042338998494   120.59243020   179.37202552
 H     20   9   8     2.036065640544   120.61429843     1.44677561
 H     21  20   9     2.041378828043   119.86055276   181.38309836
 H     22  21  20     2.035903409165   118.32732843   180.05067760
 H     23  12  11     2.035904392481   120.62761269   357.74748910
 H     24  23  12     2.041379965535   119.93842703   179.08957093
 H     25  24  23     2.036066261747   118.28759896   180.67579602
 H     26  19   7     2.041636867902   119.09836843   179.90996500
 H     27  26  19     2.041539391773   120.32509560   179.43321208
 H     28  27  26     2.036713300627   117.74522799   179.70000251
 H     30  29  16     2.042338814185   118.34672913   180.49853700
 H     31  30  29     2.036051304161   118.42705283   180.14130492
 H     32  15  14     2.036712677543   120.49488957     0.88493009
 H     33  32  15     2.041538006385   119.51770708   180.06177507
 H     34  33  32     2.041636105863   120.81054219   179.56522865

---------------------
BASIS SET INFORMATION
---------------------
There are 2 groups of distinct atoms

 Group   1 Type C   : 15s8p3d2f1g contracted to 7s4p3d2f1g pattern {8211111/5111/111/11/1}
 Group   2 Type H   : 7s3p2d1f contracted to 4s3p2d1f pattern {4111/111/11/1}

Atom   0C    basis set group =>   1
Atom   1C    basis set group =>   1
Atom   2C    basis set group =>   1
Atom   3C    basis set group =>   1
Atom   4C    basis set group =>   1
Atom   5C    basis set group =>   1
Atom   6C    basis set group =>   1
Atom   7C    basis set group =>   1
Atom   8C    basis set group =>   1
Atom   9C    basis set group =>   1
Atom  10C    basis set group =>   1
Atom  11C    basis set group =>   1
Atom  12C    basis set group =>   1
Atom  13C    basis set group =>   1
Atom  14C    basis set group =>   1
Atom  15C    basis set group =>   1
Atom  16C    basis set group =>   1
Atom  17C    basis set group =>   1
Atom  18C    basis set group =>   1
Atom  19C    basis set group =>   1
Atom  20C    basis set group =>   1
Atom  21C    basis set group =>   1
Atom  22C    basis set group =>   1
Atom  23C    basis set group =>   1
Atom  24C    basis set group =>   1
Atom  25C    basis set group =>   1
Atom  26C    basis set group =>   1
Atom  27C    basis set group =>   1
Atom  28C    basis set group =>   1
Atom  29C    basis set group =>   1
Atom  30C    basis set group =>   1
Atom  31C    basis set group =>   1
Atom  32C    basis set group =>   1
Atom  33C    basis set group =>   1
Atom  34H    basis set group =>   2
Atom  35H    basis set group =>   2
Atom  36H    basis set group =>   2
Atom  37H    basis set group =>   2
Atom  38H    basis set group =>   2
Atom  39H    basis set group =>   2
Atom  40H    basis set group =>   2
Atom  41H    basis set group =>   2
Atom  42H    basis set group =>   2
Atom  43H    basis set group =>   2
Atom  44H    basis set group =>   2
Atom  45H    basis set group =>   2
Atom  46H    basis set group =>   2
Atom  47H    basis set group =>   2
Atom  48H    basis set group =>   2
Atom  49H    basis set group =>   2
---------------------------------
AUXILIARY/C BASIS SET INFORMATION
---------------------------------
There are 2 groups of distinct atoms

 Group   1 Type C   : 9s8p7d5f3g1h contracted to 9s8p7d5f3g1h pattern {111111111/11111111/1111111/11111/111/1}
 Group   2 Type H   : 6s4p3d2f1g contracted to 6s4p3d2f1g pattern {111111/1111/111/11/1}

Atom   0C    basis set group =>   1
Atom   1C    basis set group =>   1
Atom   2C    basis set group =>   1
Atom   3C    basis set group =>   1
Atom   4C    basis set group =>   1
Atom   5C    basis set group =>   1
Atom   6C    basis set group =>   1
Atom   7C    basis set group =>   1
Atom   8C    basis set group =>   1
Atom   9C    basis set group =>   1
Atom  10C    basis set group =>   1
Atom  11C    basis set group =>   1
Atom  12C    basis set group =>   1
Atom  13C    basis set group =>   1
Atom  14C    basis set group =>   1
Atom  15C    basis set group =>   1
Atom  16C    basis set group =>   1
Atom  17C    basis set group =>   1
Atom  18C    basis set group =>   1
Atom  19C    basis set group =>   1
Atom  20C    basis set group =>   1
Atom  21C    basis set group =>   1
Atom  22C    basis set group =>   1
Atom  23C    basis set group =>   1
Atom  24C    basis set group =>   1
Atom  25C    basis set group =>   1
Atom  26C    basis set group =>   1
Atom  27C    basis set group =>   1
Atom  28C    basis set group =>   1
Atom  29C    basis set group =>   1
Atom  30C    basis set group =>   1
Atom  31C    basis set group =>   1
Atom  32C    basis set group =>   1
Atom  33C    basis set group =>   1
Atom  34H    basis set group =>   2
Atom  35H    basis set group =>   2
Atom  36H    basis set group =>   2
Atom  37H    basis set group =>   2
Atom  38H    basis set group =>   2
Atom  39H    basis set group =>   2
Atom  40H    basis set group =>   2
Atom  41H    basis set group =>   2
Atom  42H    basis set group =>   2
Atom  43H    basis set group =>   2
Atom  44H    basis set group =>   2
Atom  45H    basis set group =>   2
Atom  46H    basis set group =>   2
Atom  47H    basis set group =>   2
Atom  48H    basis set group =>   2
Atom  49H    basis set group =>   2
----------------------------------
AUXILIARY/JK BASIS SET INFORMATION
----------------------------------
There are 2 groups of distinct atoms

 Group   1 Type C   : 9s8p7d5f3g1h contracted to 9s8p7d5f3g1h pattern {111111111/11111111/1111111/11111/111/1}
 Group   2 Type H   : 6s4p3d2f1g contracted to 6s4p3d2f1g pattern {111111/1111/111/11/1}

Atom   0C    basis set group =>   1
Atom   1C    basis set group =>   1
Atom   2C    basis set group =>   1
Atom   3C    basis set group =>   1
Atom   4C    basis set group =>   1
Atom   5C    basis set group =>   1
Atom   6C    basis set group =>   1
Atom   7C    basis set group =>   1
Atom   8C    basis set group =>   1
Atom   9C    basis set group =>   1
Atom  10C    basis set group =>   1
Atom  11C    basis set group =>   1
Atom  12C    basis set group =>   1
Atom  13C    basis set group =>   1
Atom  14C    basis set group =>   1
Atom  15C    basis set group =>   1
Atom  16C    basis set group =>   1
Atom  17C    basis set group =>   1
Atom  18C    basis set group =>   1
Atom  19C    basis set group =>   1
Atom  20C    basis set group =>   1
Atom  21C    basis set group =>   1
Atom  22C    basis set group =>   1
Atom  23C    basis set group =>   1
Atom  24C    basis set group =>   1
Atom  25C    basis set group =>   1
Atom  26C    basis set group =>   1
Atom  27C    basis set group =>   1
Atom  28C    basis set group =>   1
Atom  29C    basis set group =>   1
Atom  30C    basis set group =>   1
Atom  31C    basis set group =>   1
Atom  32C    basis set group =>   1
Atom  33C    basis set group =>   1
Atom  34H    basis set group =>   2
Atom  35H    basis set group =>   2
Atom  36H    basis set group =>   2
Atom  37H    basis set group =>   2
Atom  38H    basis set group =>   2
Atom  39H    basis set group =>   2
Atom  40H    basis set group =>   2
Atom  41H    basis set group =>   2
Atom  42H    basis set group =>   2
Atom  43H    basis set group =>   2
Atom  44H    basis set group =>   2
Atom  45H    basis set group =>   2
Atom  46H    basis set group =>   2
Atom  47H    basis set group =>   2
Atom  48H    basis set group =>   2
Atom  49H    basis set group =>   2


           ************************************************************
           *        Program running with 104 parallel MPI-processes   *
           *              working on a common directory               *
           ************************************************************
------------------------------------------------------------------------------
                             ORCA STARTUP CALCULATIONS
                           -- RI-GTO INTEGRALS CHOSEN --
------------------------------------------------------------------------------
------------------------------------------------------------------------------
                   ___                                                        
                  /   \      - P O W E R E D   B Y -                         
                 /     \                                                     
                 |  |  |   _    _      __       _____    __    __             
                 |  |  |  | |  | |    /  \     |  _  \  |  |  /  |          
                  \  \/   | |  | |   /    \    | | | |  |  | /  /          
                 / \  \   | |__| |  /  /\  \   | |_| |  |  |/  /          
                |  |  |   |  __  | /  /__\  \  |    /   |      \           
                |  |  |   | |  | | |   __   |  |    \   |  |\   \          
                \     /   | |  | | |  |  |  |  | |\  \  |  | \   \       
                 \___/    |_|  |_| |__|  |__|  |_| \__\ |__|  \__/        
                                                                              
                      - O R C A' S   B I G   F R I E N D -                    
                                      &                                       
                       - I N T E G R A L  F E E D E R -                       
                                                                              
 v1 FN, 2020, v2 2021, v3 2022-2024                                           
------------------------------------------------------------------------------


----------------------
SHARK INTEGRAL PACKAGE
----------------------

Number of atoms                             ...     50
Number of basis functions                   ...   2418
Number of shells                            ...    738
Maximum angular momentum                    ...      4
Integral batch strategy                     ... SHARK/LIBINT Hybrid
RI-J (if used) integral strategy            ... SPLIT-RIJ (Revised 2003 algorithm where possible)
Printlevel                                  ...      1
Contraction scheme used                     ... SEGMENTED contraction
Prescreening option                         ... SCHWARTZ
   Thresh                                   ... 1.000e-10
   Tcut                                     ... 1.000e-11
   Tpresel                                  ... 1.000e-11 
Coulomb Range Separation                    ... NOT USED
Exchange Range Separation                   ... NOT USED
Multipole approximations                    ... NOT USED
Finite Nucleus Model                        ... NOT USED
CABS basis                                  ... NOT available
Auxiliary Coulomb fitting basis             ... NOT available
Auxiliary J/K fitting basis                 ... AVAILABLE
   # of basis functions in Aux-JK           ...   5690
   # of shells in Aux-JK                    ...   1378
   Maximum angular momentum in Aux-JK       ...      5
Auxiliary Correlation fitting basis         ... AVAILABLE
   # of basis functions in Aux-C            ...   5690
   # of shells in Aux-C                     ...   1378
   Maximum angular momentum in Aux-C        ...      5
Auxiliary 'external' fitting basis          ... NOT available

Checking pre-screening integrals            ... done (  0.1 sec) Dimension = 738
Check shell pair data                       ... done (  0.1 sec)
Shell pair information
Shell pair cut-off parameter TPreSel        ...   1.0e-11
Total number of shell pairs                 ...    272691
Shell pairs after pre-screening             ...    146031
Total number of primitive shell pairs       ...    714837
Primitive shell pairs kept                  ...    256279
          la=0 lb=0:  21711 shell pairs
          la=1 lb=0:  33346 shell pairs
          la=1 lb=1:  11771 shell pairs
          la=2 lb=0:  19512 shell pairs
          la=2 lb=1:  15080 shell pairs
          la=2 lb=2:   4706 shell pairs
          la=3 lb=0:  11676 shell pairs
          la=3 lb=1:   9050 shell pairs
          la=3 lb=2:   5321 shell pairs
          la=3 lb=3:   1632 shell pairs
          la=4 lb=0:   4730 shell pairs
          la=4 lb=1:   3725 shell pairs
          la=4 lb=2:   2205 shell pairs
          la=4 lb=3:   1279 shell pairs
          la=4 lb=4:    287 shell pairs

Calculating one electron integrals          ... done (  1.1 sec)
Calculating RI/JK V-Matrix + Cholesky decomp... done (  2.4 sec)
Calculating RI/C V-Matrix + Cholesky decomp.... done (  2.7 sec)
Calculating Nuclear repulsion               ... done (  0.0 sec) ENN=   3154.386512528662 Eh

Diagonalization of the overlap matrix:
Smallest eigenvalue                        ... 5.486e-08
Time for diagonalization                   ...    0.893 sec
Threshold for overlap eigenvalues          ... 1.000e-07
Number of eigenvalues below threshold      ... 3
Smallest eigenvalue above threshold        ... 1.748e-07

IMPORTANT:
Smallest eigenvalue of S below the DiffSThresh (1.000e-06) while
Thresh>1e-12 and/or TCut>1e-13! In order to avoid SCF convergence issues,
Thresh will be set to at least 1e-12 and TCut to at least 1e-13.
This can be turned off by adding %SCF DiffSThresh -1 END to the input.

Time for construction of square roots      ...    0.639 sec
Total time needed                          ...    1.616 sec

-------------------
DFT GRID GENERATION
-------------------

General Integration Accuracy     IntAcc      ... 4.959
Radial Grid Type                 RadialGrid  ... OptM3 with GC (2021)
Angular Grid (max. ang.)         AngularGrid ... 6 (Lebedev-590)
Angular grid pruning method      GridPruning ... 4 (adaptive)
Weight generation scheme         WeightScheme... mBecke (2022)
Basis function cutoff            BFCut       ... 1.0000e-10
Integration weight cutoff        WCut        ... 1.0000e-14
Partially contracted basis set               ... off
Rotationally invariant grid construction     ... off
Angular grids for H and He will be reduced by one unit
Diffuse basis detected: some atoms will have their outermost
                        angular grid increased by 1.

Total number of grid points                  ...   625663
Total number of batches                      ...     9800
Average number of points per batch           ...       63
Average number of grid points per atom       ...    12513
Initializing property integral containers    ... done (  0.1 sec)

SHARK setup successfully completed in 117.8 seconds

Maximum memory used throughout the entire STARTUP-calculation: 290.6 MB


           ************************************************************
           *        Program running with 104 parallel MPI-processes   *
           *              working on a common directory               *
           ************************************************************
-------------------------------------------------------------------------------
                                 ORCA GUESS
                   Start orbitals & Density for SCF / CASSCF
-------------------------------------------------------------------------------

------------
SCF SETTINGS
------------
Hamiltonian:
 Density Functional     Method          .... DFT(GTOs)
 Exchange Functional    Exchange        .... PBE
   PBE kappa parameter   XKappa         ....  0.804000
   PBE mue parameter    XMuePBE         ....  0.219520
 Correlation Functional Correlation     .... P86
 LDA part of GGA corr.  LDAOpt          .... VWN-5
 Gradients option       PostSCFGGA      .... off
 Hybrid DFT is turned on
   Fraction HF Exchange ScalHFX         ....  0.690000
   Scaling of DF-GGA-X  ScalDFX         ....  0.310000
   Scaling of DF-GGA-C  ScalDFC         ....  0.403800
   Scaling of DF-LDA-C  ScalLDAC        ....  0.403800
   Perturbative correction              ....  1.000000
 RI-approximation to the Coulomb term is turned on
   Number of AuxJK basis functions      .... 5690
   RI-JK (J+K treated both via RI)      .... on


General Settings:
 Integral files         IntName         .... compas3x_hc_c34h16_0pent_1_qz_riri
 Hartree-Fock type      HFTyp           .... RHF
 Total Charge           Charge          ....    0
 Multiplicity           Mult            ....    1
 Number of Electrons    NEL             ....  220
 Basis Dimension        Dim             .... 2418
 Nuclear Repulsion      ENuc            ....   3154.3865125287 Eh

Convergence Acceleration:
 AO-DIIS                CNVDIIS         .... on
   Start iteration      DIISMaxIt       ....    12
   Startup error        DIISStart       ....  0.200000
   # of expansion vecs  DIISMaxEq       ....     5
   Bias factor          DIISBfac        ....   1.050
   Max. coefficient     DIISMaxC        ....  10.000
 MO-DIIS                CNVKDIIS        .... off
 Trust-Rad. Augm. Hess. CNVTRAH         .... auto
   Auto Start mean grad. ratio tolernc. ....  1.125000
   Auto Start start iteration           ....    50
   Auto Start num. interpolation iter.  ....    10
   Max. Number of Micro iterations      ....    24
   Max. Number of Macro iterations      .... Maxiter - #DIIS iter
   Number of Davidson start vectors     ....     2
   Converg. threshold    (grad. norm)   ....   5.000e-05
   Grad. Scal. Fac. for Micro threshold ....   0.100
   Minimum threshold for Micro iter.    ....   1.000e-02
   NR start threshold (gradient norm)   ....   1.000e-04
   Initial trust radius                 ....   0.400
   Minimum AH scaling param. (alpha)    ....   1.000
   Maximum AH scaling param. (alpha)    .... 1000.000
   Quad. conv. algorithm                .... NR
   White noise on init. David. guess    .... on
   Maximum white noise                  ....   0.010
   Pseudo random numbers                .... off
   Inactive MOs                         .... canonical
   Orbital update algorithm             .... Taylor
   Preconditioner                       .... Diag
   Full preconditioner red. dimension   ....   250
 SOSCF                  CNVSOSCF        .... on
   Start iteration      SOSCFMaxIt      ....   150
   Startup grad/error   SOSCFStart      ....  0.003300
   Hessian update       SOSCFHessUp     .... L-BFGS
 Level Shifting         CNVShift        .... on
   Level shift para.    LevelShift      ....    0.2500
   Turn off err/grad.   ShiftErr        ....    0.0010
 Zerner damping         CNVZerner       .... off
 Static damping         CNVDamp         .... on
   Fraction old density DampFac         ....    0.7000
   Max. Damping (<1)    DampMax         ....    0.9800
   Min. Damping (>=0)   DampMin         ....    0.0000
   Turn off err/grad.   DampErr         ....    0.1000

SCF Procedure:
 Maximum # iterations   MaxIter         ....   125
 SCF integral mode      SCFMode         .... Direct
   Integral package                     .... SHARK and LIBINT hybrid scheme
 Reset frequency        DirectResetFreq ....    20
 Integral Threshold     Thresh          ....  1.000e-12 Eh
 Primitive CutOff       TCut            ....  1.000e-13 Eh

Convergence Tolerance:
 Convergence Check Mode ConvCheckMode   .... Total+1el-Energy
 Convergence forced     ConvForced      .... 0
 Energy Change          TolE            ....  1.000e-06 Eh
 1-El. energy change                    ....  1.000e-03 Eh
 Orbital Gradient       TolG            ....  5.000e-05
 Orbital Rotation angle TolX            ....  5.000e-05
 DIIS Error             TolErr          ....  1.000e-06

------------------------------
INITIAL GUESS: MODEL POTENTIAL
------------------------------
Loading Hartree-Fock densities                     ... done
Calculating cut-offs                               ... done
Initializing the effective Hamiltonian             ... done
Setting up the integral package (SHARK)            ... done
Starting the Coulomb interaction                   ... done (   0.7 sec)
Making the grid                                    ... done (   0.5 sec)
Mapping shells                                     ... done
Starting the XC term evaluation                    ... done (   0.2 sec)
  promolecular density results
     # of electrons  =    220.019271125
     EX              =   -178.941046480
     EC              =      0.255140612
     EX+EC           =   -178.685905868
Transforming the Hamiltonian                       ... done (   0.5 sec)
Diagonalizing the Hamiltonian                      ... done (   0.6 sec)
Back transforming the eigenvectors                 ... done (   0.3 sec)
Now organizing SCF variables                       ... done
                      ------------------
                      INITIAL GUESS DONE (   3.7 sec)
                      ------------------
             **** ENERGY FILE WAS UPDATED (compas3x_hc_c34h16_0pent_1_qz_riri.en.tmp) ****
Finished Guess after  21.8 sec
Maximum memory used throughout the entire GUESS-calculation: 325.8 MB


           ************************************************************
           *        Program running with 104 parallel MPI-processes   *
           *              working on a common directory               *
           ************************************************************

-------------------------------------------------------------------------------------------
                                      ORCA LEAN-SCF
                              memory conserving SCF solver
-------------------------------------------------------------------------------------------


Warning (ORCA_SCF): Not enough memory available!
                    Memory available for SCF calculation:       1024.0 MB
                    Memory needed (estimated)           :       1036.6 MB


----------------------------------------D-I-I-S--------------------------------------------
Iteration    Energy (Eh)           Delta-E    RMSDP     MaxDP     DIISErr   Damp  Time(sec)
-------------------------------------------------------------------------------------------
    1    -1299.8339765505834293     0.00e+00  4.99e-04  1.27e-01  1.51e-01  0.700  37.0
    2    -1299.6153885932553749     2.19e-01  7.29e-04  2.12e-01  1.34e-01  0.700  37.2
                               ***Turning on AO-DIIS***
    3    -1299.7588662031330387    -1.43e-01  2.35e-04  3.88e-02  7.79e-02  0.700  37.0
    4    -1300.0313686853496620    -2.73e-01  6.18e-04  1.41e-01  4.06e-02  0.000  35.9
    5    -1300.4806991140358150    -4.49e-01  2.39e-04  6.76e-02  3.25e-02  0.000  37.0
    6    -1300.4995428479696784    -1.88e-02  1.09e-04  2.82e-02  1.60e-02  0.000  36.7
    7    -1300.5040363179796259    -4.49e-03  3.37e-05  8.23e-03  4.86e-03  0.000 134.1
                              *** Initializing SOSCF ***
---------------------------------------S-O-S-C-F--------------------------------------
Iteration    Energy (Eh)           Delta-E    RMSDP     MaxDP     MaxGrad    Time(sec)
--------------------------------------------------------------------------------------
    8    -1300.5045786782384312    -5.42e-04  4.17e-05  1.27e-02  1.25e-03    39.2
    9    -1300.5046216783675845    -4.30e-05  1.81e-05  5.45e-03  1.81e-04    34.3
   10    -1300.5046266874933281    -5.01e-06  1.99e-05  6.13e-03  6.80e-05    34.3
   11    -1300.5046274084543256    -7.21e-07  2.61e-06  7.12e-04  7.32e-05    35.1
                 **** Energy Check signals convergence ****

               *****************************************************
               *                     SUCCESS                       *
               *           SCF CONVERGED AFTER  11 CYCLES          *
               *****************************************************

             **** ENERGY FILE WAS UPDATED (compas3x_hc_c34h16_0pent_1_qz_riri.en.tmp) ****

----------------
TOTAL SCF ENERGY
----------------

Total Energy       :      -1300.50462740845433 Eh          -35388.53003 eV

Components:
Nuclear Repulsion  :       3154.38651252866202 Eh           85835.22078 eV
Electronic Energy  :      -4454.89113993711726 Eh         -121223.75081 eV
One Electron Energy:      -8035.26025991135793 Eh         -218650.54765 eV
Two Electron Energy:       3580.36911997424113 Eh           97426.79684 eV

Virial components:
Potential Energy   :      -2598.16907632151469 Eh          -70699.77487 eV
Kinetic Energy     :       1297.66444891306014 Eh           35311.24484 eV
Virial Ratio       :          2.00218868483125

DFT components:
N(Alpha)           :      109.999991403441 electrons
N(Beta)            :      109.999991403441 electrons
N(Total)           :      219.999982806881 electrons
E(X)               :      -56.371803377752 Eh       
E(C)               :       -3.303848057817 Eh       
E(XC)              :      -59.675651435570 Eh       

---------------
SCF CONVERGENCE
---------------

  Last Energy change         ...    7.2096e-07  Tolerance :   1.0000e-06
  Last MAX-Density change    ...    7.1195e-04  Tolerance :   1.0000e-05
  Last RMS-Density change    ...    2.6092e-06  Tolerance :   1.0000e-06
  Last DIIS Error            ...    1.2499e-03  Tolerance :   1.0000e-06
  Last Orbital Gradient      ...    7.3215e-05  Tolerance :   5.0000e-05
  Last Orbital Rotation      ...    1.6320e-04  Tolerance :   5.0000e-05


----------------
ORBITAL ENERGIES
----------------

  NO   OCC          E(Eh)            E(eV) 
   0   2.0000     -10.837221      -294.8958 
   1   2.0000     -10.836892      -294.8868 
   2   2.0000     -10.836755      -294.8831 
   3   2.0000     -10.836455      -294.8749 
   4   2.0000     -10.836422      -294.8740 
   5   2.0000     -10.836255      -294.8695 
   6   2.0000     -10.836188      -294.8677 
   7   2.0000     -10.835962      -294.8615 
   8   2.0000     -10.835787      -294.8568 
   9   2.0000     -10.835612      -294.8520 
  10   2.0000     -10.835479      -294.8484 
  11   2.0000     -10.835289      -294.8432 
  12   2.0000     -10.835195      -294.8406 
  13   2.0000     -10.834883      -294.8321 
  14   2.0000     -10.833745      -294.8012 
  15   2.0000     -10.833741      -294.8011 
  16   2.0000     -10.831127      -294.7300 
  17   2.0000     -10.831126      -294.7299 
  18   2.0000     -10.823664      -294.5269 
  19   2.0000     -10.823663      -294.5268 
  20   2.0000     -10.823125      -294.5122 
  21   2.0000     -10.823124      -294.5122 
  22   2.0000     -10.822569      -294.4971 
  23   2.0000     -10.822567      -294.4970 
  24   2.0000     -10.822374      -294.4918 
  25   2.0000     -10.822370      -294.4917 
  26   2.0000     -10.822052      -294.4830 
  27   2.0000     -10.822051      -294.4830 
  28   2.0000     -10.821496      -294.4679 
  29   2.0000     -10.821495      -294.4679 
  30   2.0000     -10.821393      -294.4651 
  31   2.0000     -10.821389      -294.4650 
  32   2.0000     -10.820903      -294.4517 
  33   2.0000     -10.820900      -294.4517 
  34   2.0000      -1.110315       -30.2132 
  35   2.0000      -1.085124       -29.5277 
  36   2.0000      -1.072487       -29.1839 
  37   2.0000      -1.045464       -28.4485 
  38   2.0000      -1.045280       -28.4435 
  39   2.0000      -1.009538       -27.4709 
  40   2.0000      -1.003895       -27.3174 
  41   2.0000      -0.984039       -26.7771 
  42   2.0000      -0.981615       -26.7111 
  43   2.0000      -0.947779       -25.7904 
  44   2.0000      -0.929270       -25.2867 
  45   2.0000      -0.924406       -25.1544 
  46   2.0000      -0.923202       -25.1216 
  47   2.0000      -0.912225       -24.8229 
  48   2.0000      -0.898643       -24.4533 
  49   2.0000      -0.871451       -23.7134 
  50   2.0000      -0.864610       -23.5272 
  51   2.0000      -0.801814       -21.8185 
  52   2.0000      -0.795492       -21.6464 
  53   2.0000      -0.789897       -21.4942 
  54   2.0000      -0.789362       -21.4796 
  55   2.0000      -0.773742       -21.0546 
  56   2.0000      -0.753513       -20.5041 
  57   2.0000      -0.751009       -20.4360 
  58   2.0000      -0.724918       -19.7260 
  59   2.0000      -0.703678       -19.1480 
  60   2.0000      -0.693046       -18.8587 
  61   2.0000      -0.673338       -18.3225 
  62   2.0000      -0.658472       -17.9179 
  63   2.0000      -0.653073       -17.7710 
  64   2.0000      -0.648853       -17.6562 
  65   2.0000      -0.631681       -17.1889 
  66   2.0000      -0.612299       -16.6615 
  67   2.0000      -0.609609       -16.5883 
  68   2.0000      -0.600451       -16.3391 
  69   2.0000      -0.594852       -16.1867 
  70   2.0000      -0.588831       -16.0229 
  71   2.0000      -0.574889       -15.6435 
  72   2.0000      -0.564683       -15.3658 
  73   2.0000      -0.551873       -15.0172 
  74   2.0000      -0.545652       -14.8480 
  75   2.0000      -0.543164       -14.7802 
  76   2.0000      -0.536851       -14.6085 
  77   2.0000      -0.536347       -14.5948 
  78   2.0000      -0.534176       -14.5357 
  79   2.0000      -0.527081       -14.3426 
  80   2.0000      -0.518088       -14.0979 
  81   2.0000      -0.512811       -13.9543 
  82   2.0000      -0.511668       -13.9232 
  83   2.0000      -0.506858       -13.7923 
  84   2.0000      -0.504758       -13.7352 
  85   2.0000      -0.489646       -13.3239 
  86   2.0000      -0.481947       -13.1145 
  87   2.0000      -0.475998       -12.9526 
  88   2.0000      -0.474556       -12.9133 
  89   2.0000      -0.465585       -12.6692 
  90   2.0000      -0.459894       -12.5143 
  91   2.0000      -0.455891       -12.4054 
  92   2.0000      -0.455528       -12.3955 
  93   2.0000      -0.451443       -12.2844 
  94   2.0000      -0.435793       -11.8585 
  95   2.0000      -0.430173       -11.7056 
  96   2.0000      -0.412941       -11.2367 
  97   2.0000      -0.405843       -11.0436 
  98   2.0000      -0.403086       -10.9685 
  99   2.0000      -0.399759       -10.8780 
 100   2.0000      -0.381114       -10.3706 
 101   2.0000      -0.377847       -10.2817 
 102   2.0000      -0.334264        -9.0958 
 103   2.0000      -0.315383        -8.5820 
 104   2.0000      -0.311616        -8.4795 
 105   2.0000      -0.310364        -8.4454 
 106   2.0000      -0.304181        -8.2772 
 107   2.0000      -0.280162        -7.6236 
 108   2.0000      -0.242924        -6.6103 
 109   2.0000      -0.225178        -6.1274 
 110   0.0000      -0.011850        -0.3225 
 111   0.0000      -0.001676        -0.0456 
 112   0.0000       0.026215         0.7134 
 113   0.0000       0.043146         1.1741 
 114   0.0000       0.056380         1.5342 
 115   0.0000       0.060872         1.6564 
 116   0.0000       0.070647         1.9224 
 117   0.0000       0.073564         2.0018 
 118   0.0000       0.077451         2.1076 
 119   0.0000       0.078164         2.1269 
 120   0.0000       0.086169         2.3448 
*Only the first 10 virtual orbitals were printed.
-------
TIMINGS
-------

Total SCF time: 0 days 0 hours 8 min 37 sec 

Total time                  ....     517.828 sec
Sum of individual times     ....     517.402 sec  ( 99.9%)

SCF preparation             ....      17.022 sec  (  3.3%)
Fock matrix formation       ....     456.717 sec  ( 88.2%)
  Startup                   ....       3.908 sec  (  0.9% of F)
  RI-JK                     ....     326.258 sec  ( 71.4% of F)
  XC integration            ....      18.641 sec  (  4.1% of F)
    XC Preparation          ....       0.000 sec  (  0.0% of XC)
    Basis function eval.    ....       1.345 sec  (  7.2% of XC)
    Density eval.           ....       3.933 sec  ( 21.1% of XC)
    XC-Functional eval.     ....       0.035 sec  (  0.2% of XC)
    XC-Potential eval.      ....       5.193 sec  ( 27.9% of XC)
Diagonalization             ....       0.000 sec  (  0.0%)
Density matrix formation    ....       6.082 sec  (  1.2%)
Total Energy calculation    ....       3.044 sec  (  0.6%)
Population analysis         ....       0.000 sec  (  0.0%)
Orbital Transformation      ....       4.054 sec  (  0.8%)
Orbital Orthonormalization  ....       0.000 sec  (  0.0%)
DIIS solution               ....      24.387 sec  (  4.7%)
SOSCF solution              ....       5.827 sec  (  1.1%)
Finished LeanSCF after 518.8 sec

Maximum memory used throughout the entire LEANSCF-calculation: 1078.5 MB


           ************************************************************
           *        Program running with 104 parallel MPI-processes   *
           *              working on a common directory               *
           ************************************************************

------------------------------------------------------------------------------
                                ORCA  MP2 
------------------------------------------------------------------------------


-------------
RI-MP2 ENERGY
-------------
Dimension of the orbital basis            ... 2418
Dimension of the AuxC basis               ... 5690
Memory devoted to MP2                     ... 4096 MB   
Data format for matrix containers         ... DOUBLE
Compression type for matrix containers    ... UNCOMPRESSED
Scaling for aa/bb pairs                   ...   5.710e-02
Scaling for ab pairs                      ...   5.979e-01
Overall scaling of the MP2 energy         ...   1.000e+00

-----------------------
SHARK RI TRANSFORMATION
-----------------------

Number of basis functions                ...   2418
Number of aux functions                  ...   5690
Number of operators                      ...      1
Generation of IJK                        ... NO
Generation of IAK                        ... YES
Generation of ABK                        ... NO
Orbital Range Operator  0:    0- 109 to  110-2417

Aux basis identifier                     ...   AUXC
Contraction scheme used                  ... SEGMENTED
Do orthogonalization                     ... YES
All operator combinations                ... NO
Transpose (ia|K)                         ... NO
Integral generator used                  ... LIBINT
Starting integral generation + trafo... 
Half trafo (segmented) done. Total time = 12.3 sec. integrals=  2.6 sec trafo=  8.9 sec
Integral generation and half transformation done ( 12.3 sec)

Reading or making V^(-1/2)          ... done (  0.6 sec)
Sorting IAK integrals               ... done ( 14.3 sec)

SHARK RI integral transformation done. Total time = 27.4 sec.

Opening buffers                              ... done

Starting loop over batches of integrals:

Operator 0  - window                       ... (  0-109)x(110-2417)
Operator 0  - Memory available             ...  4096 MB
Operator 0  - Memory needed per MO         ... 100.2 MB
Operator 0  - Number of orbitals per batch ... 2
Operator 0  - Number of batches            ... 1

OPERATOR  0   PASS   0:  MOs     0 ...    1 +    2 ...    3 +    4 ...    5 +    6 ...    7
                            +    8 ...    9 +   10 ...   11 +   12 ...   13 +   14 ...   15
                            +   16 ...   17 +   18 ...   19 +   20 ...   21 +   22 ...   23
                            +   24 ...   25 +   26 ...   27 +   28 ...   29 +   30 ...   31
                            +   32 ...   33 +   34 ...   35 +   36 ...   37 +   38 ...   39
                            +   40 ...   41 +   42 ...   43 +   44 ...   45 +   46 ...   47
                            +   48 ...   49 +   50 ...   51 +   52 ...   53 +   54 ...   55
                            +   56 ...   57 +   58 ...   59 +   60 ...   61 +   62 ...   63
                            +   64 ...   65 +   66 ...   67 +   68 ...   69 +   70 ...   71
                            +   72 ...   73 +   74 ...   75 +   76 ...   77 +   78 ...   79
                            +   80 ...   81 +   82 ...   83 +   84 ...   85 +   86 ...   87
                            +   88 ...   89 +   90 ...   91 +   92 ...   93 +   94 ...   95
                            +   96 ...   97 +   98 ...   99 +  100 ...  101 +  102 ...  103
                            +  104 ...  105 +  106 ...  107 +  108 ...  109
  Reading integrals       ... ok
Time spent in pair loops =   245.739 sec

-----------------------------------------------
 RI-MP2 CORRELATION ENERGY:     -3.320762721 Eh
-----------------------------------------------


-------
TIMINGS
-------

Total time                :  278.178 sec
Integral trafo            :   27.719 sec ( 10.0%)
I/O of integrals          :    0.240 sec (  0.1%)
K(i,j) operators          :    3.333 sec (  1.2%)
T(i,j) pair energies      :    0.368 sec (  0.1%)
V**(-1/2)                 :    4.719 sec (  1.7%)


---------------------------------------
MP2 TOTAL ENERGY:    -1303.825390130 Eh
---------------------------------------

Maximum memory used throughout the entire MP2-calculation: 806.0 MB


-------------------------------------------------------------------------------
                          DFT DISPERSION CORRECTION                            
                                                                               
                                DFTD4 V3.4.0                                   
-------------------------------------------------------------------------------
The REV-DSD-PBEP86-2021 functional is recognized
A user input s6-coefficient scaling factor has been recognized
A user input a1-coefficient scaling factor has been recognized
A user input s8-coefficient scaling factor has been recognized
A user input a2-coefficient scaling factor has been recognized
A user input s9-coefficient scaling factor has been recognized
Active option DFTDOPT                   ...         5   

-------------------------   ----------------
Dispersion correction           -0.058128609
-------------------------   ----------------


-------------------------   --------------------
FINAL SINGLE POINT ENERGY     -1303.883518738621
-------------------------   --------------------



           ************************************************************
           *        Program running with 104 parallel MPI-processes   *
           *              working on a common directory               *
           ************************************************************

------------------------------------------------------------------------------
                              ORCA PROPERTY CALCULATIONS
------------------------------------------------------------------------------

GBWName                                 ... compas3x_hc_c34h16_0pent_1_qz_riri.gbw
Number of atoms                         ...     50
Number of basis functions               ...   2418
Max core memory                         ...   1024 MB

Electric properties:
Dipole moment                           ... YES
Quadrupole moment                       ...  NO
Static polarizability (Dipole/Dipole)   ...  NO
Static polarizability (Dipole/Quad.)    ...  NO
Static polarizability (Quad./Quad.)     ...  NO
Static polarizability (Velocity)        ...  NO

Atomic electric properties:
Dipole moment                           ...  NO
Quadrupole moment                       ...  NO
Static polarizability                   ...  NO

Choice of electric origin               ... Center of mass
Position of electric origin             ...     0.026711     0.006010    -0.000096

General magnetic properties:
Magnetizability                         ...  NO

EPR properties:
g-Tensor (aka g-matrix)                 ...  NO
Zero-Field splitting spin-orbit         ...  NO
Zero-field splitting spin-spin          ...  NO
Hyperfine couplings                     ...  NO (   0 nuclei)
Quadrupole couplings                    ...  NO (   0 nuclei)
Contact density                         ...  NO (   0 nuclei)

NMR properties:
Chemical shifts                         ...  NO (   0 nuclei)
Spin-rotation constants                 ...  NO (   0 nuclei)
Spin-spin couplings                     ...  NO (   0 nuclei,    0 pairs)

Choice of magnetic origin               ... GIAO
Position of magnetic origin             ...     0.000000     0.000000     0.000000

Properties with geometric perturbations:
SCF Hessian                             ...  NO
IR spectrum                             ...  NO
VCD spectrum                            ...  NO
X-ray spectroscopy properties:
SCF XES/XAS/RIXS spectra                ...  NO


-------------
DIPOLE MOMENT
-------------

Method             : SCF
Type of density    : Electron Density
Multiplicity       :   1
Irrep              :   0
Energy             : -1300.5046274084543256 Eh
Relativity type    : 
Basis              : AO
                                X                 Y                 Z
Electronic contribution:      0.682886526       0.149044834      -0.001404148
Nuclear contribution   :     -0.722766528      -0.157741542       0.001566990
                        -----------------------------------------
Total Dipole Moment    :     -0.039880003      -0.008696707       0.000162842
                        -----------------------------------------
Magnitude (a.u.)       :      0.040817568
Magnitude (Debye)      :      0.103750013



--------------------
Rotational spectrum 
--------------------
 
Rotational constants in cm-1:             0.007047             0.004057             0.002581 
Rotational constants in MHz :           211.269667           121.612765            77.370040 

Dipole components along the rotational axes: 
x,y,z [a.u.] :     0.000009    -0.040817     0.000146 
x,y,z [Debye]:     0.000024    -0.103749     0.000372 

 

Dipole moment calculation done in   0.5 sec 

Maximum memory used throughout the entire PROP-calculation: 371.2 MB

--------------------------------
SUGGESTED CITATIONS FOR THIS RUN
--------------------------------

Below you find a list of papers that are relevant to this ORCA run
We neither can nor want to force you to cite these papers, but we appreciate if you do
You receive ORCA, which is the product of decades of hard work by many enthusiastic individuals, for free
The only thing we kindly ask in return is that you cite our papers,
We deeply appreciate it, if you show your appreciation for ORCA by not just citing the generic ORCA reference.

Please note that relegating all ORCA citations to the supporting information does *not* help us.
SI sections are not indexed - citations you put there will not count into any citation statistics
But we need these citations in order to attract the funding resources that allow us to do what we are doing

Therefore, if you are a happy ORCA user, please consider citing a few of the papers listed below in the main body of your paper

In addition to the list printed below, the program has created the file compas3x_hc_c34h16_0pent_1_qz_riri.bibtex that contains the list in bibtex format
You can import this file easily into all common literature databanks and citation aid programs


List of essential papers. We consider these as the minimum necessary citations

  1. Neese,F.
     Software update: the ORCA program system, version 5.0
     WIRES Comput. Molec. Sci., 2022 12(1)e1606
     doi.org/10.1002/wcms.1606

List of papers to cite with high priority. The work reported in these papers was absolutely
necessary for this run to complete.
Our perspective: the developers of density functionals and basis sets usually get cited in chemistry papers
Good! But without the algorithms to do something with them, the functionals or basis sets would not do anything.
Hence, in our opinion, the algorithm design and method developments papers are equally worthy of getting cited

  1. Neese,F.
     An improvement of the resolution of the identity approximation for the formation of the Coulomb matrix
     J. Comp. Chem., 2003 24(14)1740-1747
     doi.org/10.1002/jcc.10318
  2. Kossmann,S.; Neese,F.
     Comparison of two efficient approximate Hartee-Fock approaches
     Chem. Phys. Lett., 2009 481 240-243
     doi.org/10.1016/j.cplett.2009.09.073
  3. Neese,F.
     The SHARK Integral Generation and Digestion System
     J. Comp. Chem., 2022  1-16
     doi.org/10.1002/jcc.26942
  4. Caldeweyher,E.; Bannwarth,C.; Grimme,S.
     Extension of the D3 dispersion coefficient model
     J. Chem. Phys., 2017 147 034112
     doi.org/10.1063/1.4993215
  5. Caldeweyher,E.; Ehlert,S.; Hansen,A.; Neugebauer,H.; Spicher,S.; Bannwarth,C.; Grimme,S.
     A generally applicable atomic-charge dependent London dispersion correction
     J. Chem. Phys., 2019 150 154122
     doi.org/10.1063/1.5090222
  6. Caldeweyher,E.; Mewes,J.; Ehlert,S.; Grimme,S.
     Extension and evaluation of the D4 London-dispersion model for periodic systems
     Phys. Chem. Chem. Phys., 2020 22(16)8499-8512
     doi.org/10.1039/D0CP00502A
  7. Wittmann,L.; Gordiy,I.; Friede,M.; Helmich-Paris,B.; Grimme,S.; Hansen,A.; Bursch,M.
     Extension of the D3 and D4 London Dispersion Corrections to the full Actinides Series
     Phys. Chem. Chem. Phys., 2024 26(32)21379-21394
     doi.org/https://doi.org/10.1039/D4CP01514B 

List of suggested additional citations. These are papers that are important in the 'surrounding' of 
of this run, or papers that preceded the highly important papers. If you like your results we are grateful for a citation.

  1. Neese,F.
     The ORCA program system
     WIRES Comput. Molec. Sci., 2012 2(1)73-78
     doi.org/10.1002/wcms.81
  2. Neese,F.
     Software update: the ORCA program system, version 4.0
     WIRES Comput. Molec. Sci., 2018 8(1)1-6
     doi.org/10.1002/wcms.1327
  3. Neese,F.; Wennmohs,F.; Becker,U.; Riplinger,C.
     The ORCA quantum chemistry program package
     J. Chem. Phys., 2020 152 Art. No. L224108
     doi.org/10.1063/5.0004608

List of optional additional citations

  1. Neese,F.
     Approximate second-order SCF convergence for spin unrestricted wavefunctions
     Chem. Phys. Lett., 2000 325(1-3)93-98
     doi.org/10.1016/s0009-2614(00)00662-x

Timings for individual modules:

Sum of individual times          ...     1017.179 sec (=  16.953 min)
Startup calculation              ...      136.087 sec (=   2.268 min)  13.4 %
SCF iterations                   ...      543.290 sec (=   9.055 min)  53.4 %
Property calculations            ...       39.317 sec (=   0.655 min)   3.9 %
MP2 module                       ...      298.485 sec (=   4.975 min)  29.3 %
                             ****ORCA TERMINATED NORMALLY****
TOTAL RUN TIME: 0 days 0 hours 17 minutes 28 seconds 516 msec
