
                                 *****************
                                 * O   R   C   A *
                                 *****************

                                            #,                                       
                                            ###                                      
                                            ####                                     
                                            #####                                    
                                            ######                                   
                                           ########,                                 
                                     ,,################,,,,,                         
                               ,,#################################,,                 
                          ,,##########################################,,             
                       ,#########################################, ''#####,          
                    ,#############################################,,   '####,        
                  ,##################################################,,,,####,       
                ,###########''''           ''''###############################       
              ,#####''   ,,,,##########,,,,          '''####'''          '####       
            ,##' ,,,,###########################,,,                        '##       
           ' ,,###''''                  '''############,,,                           
         ,,##''                                '''############,,,,        ,,,,,,###''
      ,#''                                            '''#######################'''  
     '                                                          ''''####''''         
             ,#######,   #######,   ,#######,      ##                                
            ,#'     '#,  ##    ##  ,#'     '#,    #''#        ,####,   ,####,        
            ##       ##  ##   ,#'  ##            #'  '#       #'       #'  '#        
            ##       ##  #######   ##           ,######,      #####,   #    #        
            '#,     ,#'  ##    ##  '#,     ,#' ,#      #,     #,   #   #,  ,#        
             '#######'   ##     ##  '#######'  #'      '#     '####' # '####'        



                #########################################################
                #                        -***-                          #
                #          Department of theory and spectroscopy        #
                #                                                       #
                #                      Frank Neese                      #
                #                                                       #
                #     Directorship, Architecture, Infrastructure        #
                #                    SHARK, DRIVERS                     #
                #        Core code/Algorithms in most modules           #
                #                                                       #
                #        Max Planck Institute fuer Kohlenforschung      #
                #                Kaiser Wilhelm Platz 1                 #
                #                 D-45470 Muelheim/Ruhr                 #
                #                      Germany                          #
                #                                                       #
                #                  All rights reserved                  #
                #                        -***-                          #
                #########################################################


                         Program Version 6.0.1  -  RELEASE   -


 With contributions from (in alphabetic order):
[Max-Planck-Institut fuer Kohlenforschung]                               
  Daniel Aravena         : Magnetic Suceptibility                        
  Michael Atanasov       : Ab Initio Ligand Field Theory (pilot matlab implementation)
  Alexander A. Auer      : GIAO ZORA, VPT2 properties, NMR spectrum      
  Ute Becker             : All parallelization in ORCA, NUMFREQ, NUMCALC 
  Giovanni Bistoni       : ED, misc. LED, open-shell LED, HFLD           
  Martin Brehm           : Molecular dynamics                            
  Dmytro Bykov           : pre 5.0 version of the SCF Hessian            
  Marcos Casanova-Páez   : Triplet and SCS-CIS(D). UHF-(DLPNO)-IP/EA/STEOM-CCSD. UHF-CVS-IP/STEOM-CCSD   
  Vijay G. Chilkuri      : MRCI spin determinant printing, contributions to CSF-ICE 
  Pauline Colinet        : FMM embedding                                 
  Dipayan Datta          : RHF DLPNO-CCSD density                        
  Achintya Kumar Dutta   : EOM-CC, STEOM-CC                              
  Nicolas Foglia         : Exact transition moments, OPA infrastructure, MCD improvements    
  Dmitry Ganyushin       : Spin-Orbit,Spin-Spin,Magnetic field MRCI      
  Miquel Garcia-Rates    : C-PCM and meta-GGA Hessian, CCSD/C-PCM, Gaussian charge scheme 
  Tiago L. C. Gouveia    : GS-ROHF, GS-ROCIS                             
  Yang Guo               : DLPNO-NEVPT2, F12-NEVPT2, CIM, IAO-localization        
  Andreas Hansen         : Spin unrestricted coupled pair/coupled cluster methods 
  Ingolf Harden          : AUTO-CI MPn and infrastructure                
  Benjamin Helmich-Paris : MC-RPA, TRAH-(SCF,CASSCF), AVAS, COSX integrals, SCF dyn. polar. 
  Lee Huntington         : MR-EOM, pCC                                   
  Robert Izsak           : Overlap fitted RIJCOSX, COSX-SCS-MP3, EOM     
  Riya Kayal             : Wick's Theorem for AUTO-CI, AUTO-CI UHF-CCSDT 
  Emily Kempfer          : AUTO-CI, RHF CISDT and CCSDT                  
  Christian Kollmar      : KDIIS, OOCD, Brueckner-CCSD(T), CCSD density, CASPT2, CASPT2-K, improved NEVPT2 
  Axel Koslowski         : Symmetry handling                             
  Simone Kossmann        : meta-GGA functionals, TD-DFT gradient, OOMP2, (MP2 Hessian; deprecated post 5.0) 
  Lucas Lang             : DCDCAS                                        
  Marvin Lechner         : AUTO-CI (C++ implementation), FIC-MRCC        
  Spencer Leger          : CASSCF response                               
  Dagmar Lenk            : GEPOL surface, SMD, ORCA-2-JSON               
  Dimitrios Liakos       : Extrapolation schemes; Compound Job, initial MDCI parallelization 
  Dimitrios Manganas     : Further ROCIS development; embedding schemes. LFT, Crystal Embedding 
  Dimitrios Pantazis     : SARC Basis sets                               
  Anastasios Papadopoulos: AUTO-CI, single reference methods and gradients 
  Taras Petrenko         : pre 6.0 DFT Hessian and TD-DFT gradient, (ASA, deprecated), ECA, 1-Electron XAS/XES, NRVS 
  Peter Pinski           : DLPNO-MP2, DLPNO-MP2 Gradient                 
  Christoph Reimann      : Effective Core Potentials                     
  Marius Retegan         : Local ZFS, SOC                                
  Christoph Riplinger    : Optimizer, TS searches, QM/MM, DLPNO-CCSD(T), (RO)-DLPNO pert. Triples 
  Michael Roemelt        : Original ROCIS implementation                 
  Masaaki Saitow         : Open-shell DLPNO-CCSD energy and density      
  Barbara Sandhoefer     : DKH picture change effects                    
  Kantharuban Sivalingam : CASSCF convergence/infrastructure, NEVPT2 and variants, FIC-MRCI 
  Bernardo de Souza      : ESD, SOC TD-DFT                               
  Georgi L. Stoychev     : AutoAux, RI-MP2 NMR, DLPNO-MP2 response, X2C  
  Van Anh Tran           : RI-MP2 g-tensors                              
  Willem Van den Heuvel  : Paramagnetic NMR                              
  Zikuan Wang            : NOTCH, Electric field optimization            
  Frank Wennmohs         : Technical directorship and infrastructure     
  Hang Xu                : AUTO-CI-Response properties                   
                                                                         
[FACCTs GmbH]                                                            
  Markus Bursch, Miquel Garcia-Rates, Christoph Riplinger, Bernardo de Souza, Georgi L. Stoychev 
                                                                 
  APM, Basis sets (HGBS, AHGBS, def-TZVP (Ac-Lr), def2-XVPD (La-Lu)), CI-OPT, improved COSX, DLPNO-Multilevel,           
  DOCKER, DRACO, updates on ESD, GOAT, IRC, LR-CPCM, MBIS, meta-GGA TD-DFT gradient, ML-optimized integration grids, 
  MM, NACMEs, nearIR, NEB, NEB-TS, NL-DFT gradient (VV10), 2- and 3-layer-ONIOM, interface openCOSMO-RS, QMMM,   
  Crystal-QMMM, SF, symmetry and pop. for TD-DFT, r2SCAN hybrids, SOLVATOR                                   
                                                                         
[Other institutions]                                                     
  V. Asgeirsson          : NEB                                           
  Christoph Bannwarth    : sTDA-DFT, sTD-DFT, PBEh-3c, B97-3c, D3        
  Sebastian Ehlert       : rSCAN, r2SCAN, r2SCAN-3c, D4, dhf basis sets  
  Marvin Friede          : D4 for Fr, Ra, Ac-Lr                          
  Lars Goerigk           : TD-DFT with DH, B97 family of functionals     
  Stefan Grimme          : VdW corrections, initial TS optimization, DFT functionals, gCP, sTDA/sTD-DF 
  Waldemar Hujo          : DFT-NL                                        
  H. Jonsson             : NEB                                           
  Holger Kruse           : gCP                                           
  Marcel Mueller         : wB97X-3c, vDZP basis set                      
  Hagen Neugebauer       : wr2SCAN                                       
  Tobias Risthaus        : range-separated hybrid DFT                    
  Lukas Wittmann         : regularized MP2, r2SCAN double-hybrids, wr2SCAN        
                                                                         
We gratefully acknowledge several colleagues who have allowed us to      
interface, adapt or use parts of their codes:                            
  Ed Valeev, F. Pavosevic, A. Kumar             : LibInt (2-el integral package), F12 methods 
  Garnet Chan, S. Sharma, J. Yang, R. Olivares  : DMRG                   
  Ulf Ekstrom                                   : XCFun DFT Library      
  Mihaly Kallay                                 : mrcc  (arbitrary order and MRCC methods)
  Frank Weinhold                                : gennbo (NPA and NBO analysis)           
  Simon Mueller                                 : openCOSMO-RS                            
  Christopher J. Cramer and Donald G. Truhlar   : smd solvation model                     
  S Lehtola, MJT Oliveira, MAL Marques          : LibXC Library                           
  Liviu Ungur et al                             : ANISO software                          


 Your calculation uses the libint2 library for the computation of 2-el integrals
 For citations please refer to: http://libint.valeyev.net

 Your ORCA version has been built with support for libXC version: 6.2.2
 For citations please refer to: https://libxc.gitlab.io

 This ORCA versions uses:
   CBLAS   interface :  Fast vector & matrix operations
   LAPACKE interface :  Fast linear algebra routines
   SCALAPACK package :  Parallel linear algebra routines
   Shared memory     :  Shared parallel matrices
   BLAS/LAPACK       :  OpenBLAS 0.3.27  USE64BITINT DYNAMIC_ARCH NO_AFFINITY SapphireRapids SINGLE_THREADED
        Core in use  :  SapphireRapids
   Copyright (c) 2011-2014, The OpenBLAS Project


Warning! Weird basis set assignment to AuxJK basis!


***************************************
The coordinates will be read from file: /g/data/kx58/rs2200/dhdft/inputs/compas3x-xyzs/hc_c38h20_0pent_1.xyz
***************************************


Your calculation utilizes the atom-pairwise dispersion correction
based on EEQ partial charges (D4)


================================================================================

----- Orbital basis set information -----
Your calculation utilizes the basis: def2-QZVPP
   F. Weigend and R. Ahlrichs, Phys. Chem. Chem. Phys. 7, 3297 (2005).

----- AuxC basis set information -----
Your calculation utilizes the auxiliary basis: def2-QZVPP/C
  H-La, Hf-Rn : A. Hellweg, C. Hattig, S. Hofener and W. Klopper, Theor. Chem. Acc. 117, 587 (2007).
        Ce-Lu : J. Chmela and M. E. Harding, Mol. Phys. (2018).

----- AuxJK basis set information -----
Your calculation utilizes the auxiliary basis: def2-QZVPP/C
  H-La, Hf-Rn : A. Hellweg, C. Hattig, S. Hofener and W. Klopper, Theor. Chem. Acc. 117, 587 (2007).
        Ce-Lu : J. Chmela and M. E. Harding, Mol. Phys. (2018).

================================================================================
                                        WARNINGS
                       Please study these warnings very carefully!
================================================================================


WARNING: No MP2 level density has been requested!
         To calculate MP2 level properties use
         %mp2 Density relaxed end
         or
         %mp2 Density unrelaxed end
         Otherwise for double-hybrid DFT only the energy is correct!

================================================================================
                                       INPUT FILE
================================================================================
NAME = compas3x_hc_c38h20_0pent_1_qz_riri.inp
|  1> ! RKS revDSD-PBEP86-D4/2021 defgrid3  RIJK NOPOP NoFrozencore NoUseSym
|  2> 
|  3> %basis
|  4> Basis "def2-QZVPP"
|  5> AuxJK "def2-QZVPP/C"
|  6> AuxC "def2-QZVPP/C"
|  7> end
|  8> 
|  9> %method
| 10> ScalHFX 0.69
| 11> ScalDFX 0.31
| 12> ScalDFC 0.4038
| 13> ScalLDAC 0.4038
| 14> 
| 15> D4S6 0.4612
| 16> D4S8 0.0
| 17> D4A1 0.44
| 18> D4A2 3.60
| 19> end
| 20> 
| 21> %mp2
| 22> PS 0.5979
| 23> PT 0.0571
| 24> 
| 25> end
| 26> 
| 27> %pal
| 28> nprocs 104
| 29> end
| 30> 
| 31> *XYZFILE 0 1 /g/data/kx58/rs2200/dhdft/inputs/compas3x-xyzs/hc_c38h20_0pent_1.xyz
| 32> 
| 33>                          ****END OF INPUT****
================================================================================

                       ****************************
                       * Single Point Calculation *
                       ****************************

---------------------------------
CARTESIAN COORDINATES (ANGSTROEM)
---------------------------------
  C      3.111250   -1.763683   -1.029771
  C      2.071038   -2.712878   -1.191814
  C      0.719960   -2.284225   -1.274970
  C      0.391888   -0.922375   -1.083566
  C      1.427596   -0.008669   -0.653733
  C      2.765735   -0.373487   -0.821560
  C      4.426251   -2.225529   -1.010043
  C      4.719064   -3.573749   -1.136566
  C      3.712021   -4.499591   -1.302994
  C      2.378400   -4.086648   -1.342611
  C      1.318241   -5.014618   -1.560596
  C      0.038717   -4.597792   -1.688298
  C     -0.300969   -3.218299   -1.576115
  C     -1.607600   -2.765512   -1.768934
  C     -1.886932   -1.415653   -1.726606
  C     -0.901301   -0.503724   -1.391848
  C      1.115303    1.296261   -0.139695
  C      2.093569    2.324101   -0.290031
  C      3.418181    1.949696   -0.642378
  C      3.755929    0.646347   -0.795959
  C     -0.087219    1.621865    0.525771
  C     -0.482853    2.971360    0.616891
  C      0.450066    4.003471    0.303617
  C      1.752003    3.647791   -0.049825
  C     -1.810531    3.321981    0.998886
  C     -2.145088    4.658499    1.089906
  C     -1.216890    5.667876    0.811137
  C      0.052976    5.353950    0.421010
  C     -0.912280    0.630154    1.196555
  C     -2.270354    0.941398    1.459389
  C     -2.767150    2.257111    1.271079
  C     -3.136268   -0.077856    1.932064
  C     -4.508566    0.204863    2.079104
  C     -4.991505    1.453825    1.794687
  C     -4.125155    2.480477    1.416251
  C     -0.411599   -0.586346    1.627158
  C     -1.252493   -1.563756    2.156754
  C     -2.599963   -1.340020    2.255209
  H      5.245800   -1.537964   -0.874255
  H      5.749566   -3.897280   -1.105759
  H      3.944630   -5.548795   -1.415041
  H      1.571368   -6.061964   -1.647152
  H     -0.756877   -5.302444   -1.885620
  H     -2.387961   -3.480462   -1.986487
  H     -2.884220   -1.062061   -1.944141
  H     -1.141716    0.548159   -1.384706
  H      4.158798    2.729136   -0.747725
  H      4.785054    0.390743   -0.989924
  H      2.505306    4.416853   -0.144702
  H     -3.138925    4.951364    1.389727
  H     -1.520632    6.700559    0.903737
  H      0.771110    6.127117    0.189632
  H     -5.168893   -0.578688    2.421669
  H     -6.047255    1.663781    1.888654
  H     -4.540059    3.460542    1.239756
  H      0.644716   -0.793155    1.546556
  H     -0.831820   -2.510673    2.462057
  H     -3.265464   -2.114381    2.608170

----------------------------
CARTESIAN COORDINATES (A.U.)
----------------------------
  NO LB      ZA    FRAG     MASS         X           Y           Z
   0 C     6.0000    0    12.011    5.879411   -3.332877   -1.945985
   1 C     6.0000    0    12.011    3.913694   -5.126596   -2.252202
   2 C     6.0000    0    12.011    1.360528   -4.316560   -2.409344
   3 C     6.0000    0    12.011    0.740562   -1.743037   -2.047644
   4 C     6.0000    0    12.011    2.697766   -0.016382   -1.235376
   5 C     6.0000    0    12.011    5.226482   -0.705789   -1.552523
   6 C     6.0000    0    12.011    8.364403   -4.205641   -1.908705
   7 C     6.0000    0    12.011    8.917739   -6.753408   -2.147799
   8 C     6.0000    0    12.011    7.014703   -8.502994   -2.462302
   9 C     6.0000    0    12.011    4.494525   -7.722645   -2.537167
  10 C     6.0000    0    12.011    2.491114   -9.476255   -2.949099
  11 C     6.0000    0    12.011    0.073165   -8.688568   -3.190420
  12 C     6.0000    0    12.011   -0.568748   -6.081705   -2.978427
  13 C     6.0000    0    12.011   -3.037924   -5.226060   -3.342801
  14 C     6.0000    0    12.011   -3.565785   -2.675197   -3.262813
  15 C     6.0000    0    12.011   -1.703212   -0.951900   -2.630211
  16 C     6.0000    0    12.011    2.107617    2.449578   -0.263986
  17 C     6.0000    0    12.011    3.956272    4.391914   -0.548080
  18 C     6.0000    0    12.011    6.459425    3.684391   -1.213919
  19 C     6.0000    0    12.011    7.097678    1.221418   -1.504144
  20 C     6.0000    0    12.011   -0.164821    3.064881    0.993562
  21 C     6.0000    0    12.011   -0.912459    5.615057    1.165755
  22 C     6.0000    0    12.011    0.850502    7.565464    0.573754
  23 C     6.0000    0    12.011    3.310805    6.893325   -0.094156
  24 C     6.0000    0    12.011   -3.421407    6.277635    1.887621
  25 C     6.0000    0    12.011   -4.053629    8.803287    2.059624
  26 C     6.0000    0    12.011   -2.299588   10.710734    1.532826
  27 C     6.0000    0    12.011    0.100110   10.117499    0.795594
  28 C     6.0000    0    12.011   -1.723959    1.190818    2.261162
  29 C     6.0000    0    12.011   -4.290346    1.778984    2.757845
  30 C     6.0000    0    12.011   -5.229155    4.265321    2.401991
  31 C     6.0000    0    12.011   -5.926688   -0.147127    3.651072
  32 C     6.0000    0    12.011   -8.519955    0.387135    3.928937
  33 C     6.0000    0    12.011   -9.432578    2.747332    3.391466
  34 C     6.0000    0    12.011   -7.795414    4.687423    2.676326
  35 C     6.0000    0    12.011   -0.777810   -1.108033    3.074883
  36 C     6.0000    0    12.011   -2.366870   -2.955071    4.075674
  37 C     6.0000    0    12.011   -4.913218   -2.532271    4.261728
  38 H     1.0000    0     1.008    9.913125   -2.906330   -1.652102
  39 H     1.0000    0     1.008   10.865106   -7.364792   -2.089582
  40 H     1.0000    0     1.008    7.454270  -10.485703   -2.674039
  41 H     1.0000    0     1.008    2.969455  -11.455453   -3.112667
  42 H     1.0000    0     1.008   -1.430291  -10.020168   -3.563305
  43 H     1.0000    0     1.008   -4.512592   -6.577120   -3.753917
  44 H     1.0000    0     1.008   -5.450387   -2.007005   -3.673894
  45 H     1.0000    0     1.008   -2.157531    1.035871   -2.616715
  46 H     1.0000    0     1.008    7.858990    5.157320   -1.412995
  47 H     1.0000    0     1.008    9.042441    0.738396   -1.870685
  48 H     1.0000    0     1.008    4.734343    8.346642   -0.273448
  49 H     1.0000    0     1.008   -5.931709    9.356721    2.626203
  50 H     1.0000    0     1.008   -2.873577   12.662222    1.707815
  51 H     1.0000    0     1.008    1.457187   11.578574    0.358353
  52 H     1.0000    0     1.008   -9.767792   -1.093561    4.576291
  53 H     1.0000    0     1.008  -11.427655    3.144091    3.569039
  54 H     1.0000    0     1.008   -8.579468    6.539476    2.342799
  55 H     1.0000    0     1.008    1.218336   -1.498845    2.922567
  56 H     1.0000    0     1.008   -1.571912   -4.744484    4.652613
  57 H     1.0000    0     1.008   -6.170833   -3.995602    4.928727

--------------------------------
INTERNAL COORDINATES (ANGSTROEM)
--------------------------------
 C      0   0   0     0.000000000000     0.00000000     0.00000000
 C      1   0   0     1.417487636309     0.00000000     0.00000000
 C      2   1   0     1.419882874552   120.18669925     0.00000000
 C      3   2   1     1.413825050297   120.24290549   354.62265503
 C      4   3   2     1.446480744145   118.85101534   353.02138897
 C      5   4   3     1.397094859361   119.02298988    19.00307143
 C      1   2   3     1.393886713659   118.16779460   182.67774810
 C      7   1   2     1.385440369826   121.36796265   359.62416991
 C      8   7   1     1.378048259432   120.68915705     0.80743397
 C      9   8   7     1.396651483744   120.17068013   359.83378460
 C     10   9   8     1.425687629167   121.46270553   177.75928379
 C     11  10   9     1.351751211614   121.17238316   184.53725871
 C      3   2   1     1.416149509120   119.95459287   173.40187037
 C     13   3   2     1.396238153331   119.34851924   185.50344993
 C     14  13   3     1.379106803859   120.18024479     2.95155328
 C     15  14  13     1.383888671039   120.54092629   354.99419788
 C      5   4   3     1.436872850316   121.62498005   194.92954688
 C     17   5   4     1.426905735771   117.87112970   207.20295275
 C     18  17   5     1.420888087662   118.38873280   345.49322561
 C     19  18  17     1.355131221639   120.92293704   358.18467861
 C     17   5   4     1.412417585034   124.26066956    28.37866647
 C     21  17   5     1.409242966295   119.35650093   199.78449633
 C     22  21  17     1.426089058465   119.68235284   346.52819591
 C     18  17   5     1.387992136642   120.00066858   167.61624986
 C     22  21  17     1.425336462267   120.95721066   165.57235196
 C     25  22  21     1.380757587342   118.78179769   179.20355497
 C     26  25  22     1.399323835656   121.62556229     0.29783567
 C     27  26  25     1.365030051776   120.53877600     0.84956495
 C     21  17   5     1.454018156625   122.90417098    23.39169127
 C     29  21  17     1.417856945095   118.64012638   199.85282546
 C     30  29  21     1.418931926194   120.95095175   350.11248492
 C     30  29  21     1.418488137321   119.25825130   170.85196246
 C     32  30  29     1.408812401889   119.02610983   185.55447738
 C     33  32  30     1.368952356330   120.33411509   358.70242834
 C     31  30  29     1.383888554361   118.64057545   173.80964576
 C     29  21  17     1.384186067599   122.52634963    22.05542543
 C     36  29  21     1.393881586204   121.08094357   185.89591376
 C     37  36  29     1.369461684201   120.42044797     0.34529621
 H      7   1   2     1.078352831074   120.49799369   180.90785044
 H      8   7   1     1.080534797700   119.36247542   180.68355485
 H      9   8   7     1.080504822606   120.50352454   179.15148922
 H     11  10   9     1.080971540612   117.95381799     2.94712482
 H     12  11  10     1.080944617200   120.85855971   177.98574622
 H     14  13   3     1.080484242730   119.28182427   180.75659743
 H     15  14  13     1.080246556979   120.07902299   175.72151449
 H     16  15  14     1.079031204754   119.03188625   178.83373141
 H     19  18  17     1.080342511818   118.23965403   180.48748720
 H     20  19  18     1.077985478931   119.10321773   184.59619073
 H     24  18  17     1.080705465589   119.46777109   178.63308978
 H     26  25  22     1.078598761294   120.29196484   180.82779901
 H     27  26  25     1.080402045273   119.07237719   180.52144633
 H     28  27  26     1.080296560350   120.99950638   179.07349995
 H     33  32  30     1.080432290127   118.87394667   178.86747693
 H     34  33  32     1.080517375009   120.25866846   178.75711269
 H     35  31  30     1.078805875103   120.45571277   182.54464866
 H     36  29  21     1.079383120725   119.94325930     5.31534714
 H     37  36  29     1.080197715638   119.15279341   178.59324830
 H     38  37  36     1.080327850652   120.83111963   176.24075092

---------------------------
INTERNAL COORDINATES (A.U.)
---------------------------
 C      0   0   0     0.000000000000     0.00000000     0.00000000
 C      1   0   0     2.678663430844     0.00000000     0.00000000
 C      2   1   0     2.683189775149   120.18669925     0.00000000
 C      3   2   1     2.671742146339   120.24290549   354.62265503
 C      4   3   2     2.733452464425   118.85101534   353.02138897
 C      5   4   3     2.640126667301   119.02298988    19.00307143
 C      1   2   3     2.634064150527   118.16779460   182.67774810
 C      7   1   2     2.618102873850   121.36796265   359.62416991
 C      8   7   1     2.604133809654   120.68915705     0.80743397
 C      9   8   7     2.639288808811   120.17068013   359.83378460
 C     10   9   8     2.694159171646   121.46270553   177.75928379
 C     11  10   9     2.554439591147   121.17238316   184.53725871
 C      3   2   1     2.676134736923   119.95459287   173.40187037
 C     13   3   2     2.638507727527   119.34851924   185.50344993
 C     14  13   3     2.606134168721   120.18024479     2.95155328
 C     15  14  13     2.615170588101   120.54092629   354.99419788
 C      5   4   3     2.715296176364   121.62498005   194.92954688
 C     17   5   4     2.696461059529   117.87112970   207.20295275
 C     18  17   5     2.685089352633   118.38873280   345.49322561
 C     19  18  17     2.560826884423   120.92293704   358.18467861
 C     17   5   4     2.669082422449   124.26066956    28.37866647
 C     21  17   5     2.663083262452   119.35650093   199.78449633
 C     22  21  17     2.694917763081   119.68235284   346.52819591
 C     18  17   5     2.622925014289   120.00066858   167.61624986
 C     22  21  17     2.693495562376   120.95721066   165.57235196
 C     25  22  21     2.609253697410   118.78179769   179.20355497
 C     26  25  22     2.644338822058   121.62556229     0.29783567
 C     27  26  25     2.579532962430   120.53877600     0.84956495
 C     21  17   5     2.747696109771   122.90417098    23.39169127
 C     29  21  17     2.679361323307   118.64012638   199.85282546
 C     30  29  21     2.681392743184   120.95095175   350.11248492
 C     30  29  21     2.680554103753   119.25825130   170.85196246
 C     32  30  29     2.662269613642   119.02610983   185.55447738
 C     33  32  30     2.586945043850   120.33411509   358.70242834
 C     31  30  29     2.615170367610   118.64057545   173.80964576
 C     29  21  17     2.615732586152   122.52634963    22.05542543
 C     36  29  21     2.634054461042   121.08094357   185.89591376
 C     37  36  29     2.587907534039   120.42044797     0.34529621
 H      7   1   2     2.037791526469   120.49799369   180.90785044
 H      8   7   1     2.041914845825   119.36247542   180.68355485
 H      9   8   7     2.041858201106   120.50352454   179.15148922
 H     11  10   9     2.042740170319   117.95381799     2.94712482
 H     12  11  10     2.042689292444   120.85855971   177.98574622
 H     14  13   3     2.041819310776   119.28182427   180.75659743
 H     15  14  13     2.041370149802   120.07902299   175.72151449
 H     16  15  14     2.039073466940   119.03188625   178.83373141
 H     19  18  17     2.041551478169   118.23965403   180.48748720
 H     20  19  18     2.037097331523   119.10321773   184.59619073
 H     24  18  17     2.042237361396   119.46777109   178.63308978
 H     26  25  22     2.038256267232   120.29196484   180.82779901
 H     27  26  25     2.041663980094   119.07237719   180.52144633
 H     28  27  26     2.041464642479   120.99950638   179.07349995
 H     33  32  30     2.041721134586   118.87394667   178.86747693
 H     34  33  32     2.041881921711   120.25866846   178.75711269
 H     35  31  30     2.038647655610   120.45571277   182.54464866
 H     36  29  21     2.039738491747   119.94325930     5.31534714
 H     37  36  29     2.041277853044   119.15279341   178.59324830
 H     38  37  36     2.041523772580   120.83111963   176.24075092

---------------------
BASIS SET INFORMATION
---------------------
There are 2 groups of distinct atoms

 Group   1 Type C   : 15s8p3d2f1g contracted to 7s4p3d2f1g pattern {8211111/5111/111/11/1}
 Group   2 Type H   : 7s3p2d1f contracted to 4s3p2d1f pattern {4111/111/11/1}

Atom   0C    basis set group =>   1
Atom   1C    basis set group =>   1
Atom   2C    basis set group =>   1
Atom   3C    basis set group =>   1
Atom   4C    basis set group =>   1
Atom   5C    basis set group =>   1
Atom   6C    basis set group =>   1
Atom   7C    basis set group =>   1
Atom   8C    basis set group =>   1
Atom   9C    basis set group =>   1
Atom  10C    basis set group =>   1
Atom  11C    basis set group =>   1
Atom  12C    basis set group =>   1
Atom  13C    basis set group =>   1
Atom  14C    basis set group =>   1
Atom  15C    basis set group =>   1
Atom  16C    basis set group =>   1
Atom  17C    basis set group =>   1
Atom  18C    basis set group =>   1
Atom  19C    basis set group =>   1
Atom  20C    basis set group =>   1
Atom  21C    basis set group =>   1
Atom  22C    basis set group =>   1
Atom  23C    basis set group =>   1
Atom  24C    basis set group =>   1
Atom  25C    basis set group =>   1
Atom  26C    basis set group =>   1
Atom  27C    basis set group =>   1
Atom  28C    basis set group =>   1
Atom  29C    basis set group =>   1
Atom  30C    basis set group =>   1
Atom  31C    basis set group =>   1
Atom  32C    basis set group =>   1
Atom  33C    basis set group =>   1
Atom  34C    basis set group =>   1
Atom  35C    basis set group =>   1
Atom  36C    basis set group =>   1
Atom  37C    basis set group =>   1
Atom  38H    basis set group =>   2
Atom  39H    basis set group =>   2
Atom  40H    basis set group =>   2
Atom  41H    basis set group =>   2
Atom  42H    basis set group =>   2
Atom  43H    basis set group =>   2
Atom  44H    basis set group =>   2
Atom  45H    basis set group =>   2
Atom  46H    basis set group =>   2
Atom  47H    basis set group =>   2
Atom  48H    basis set group =>   2
Atom  49H    basis set group =>   2
Atom  50H    basis set group =>   2
Atom  51H    basis set group =>   2
Atom  52H    basis set group =>   2
Atom  53H    basis set group =>   2
Atom  54H    basis set group =>   2
Atom  55H    basis set group =>   2
Atom  56H    basis set group =>   2
Atom  57H    basis set group =>   2
---------------------------------
AUXILIARY/C BASIS SET INFORMATION
---------------------------------
There are 2 groups of distinct atoms

 Group   1 Type C   : 9s8p7d5f3g1h contracted to 9s8p7d5f3g1h pattern {111111111/11111111/1111111/11111/111/1}
 Group   2 Type H   : 6s4p3d2f1g contracted to 6s4p3d2f1g pattern {111111/1111/111/11/1}

Atom   0C    basis set group =>   1
Atom   1C    basis set group =>   1
Atom   2C    basis set group =>   1
Atom   3C    basis set group =>   1
Atom   4C    basis set group =>   1
Atom   5C    basis set group =>   1
Atom   6C    basis set group =>   1
Atom   7C    basis set group =>   1
Atom   8C    basis set group =>   1
Atom   9C    basis set group =>   1
Atom  10C    basis set group =>   1
Atom  11C    basis set group =>   1
Atom  12C    basis set group =>   1
Atom  13C    basis set group =>   1
Atom  14C    basis set group =>   1
Atom  15C    basis set group =>   1
Atom  16C    basis set group =>   1
Atom  17C    basis set group =>   1
Atom  18C    basis set group =>   1
Atom  19C    basis set group =>   1
Atom  20C    basis set group =>   1
Atom  21C    basis set group =>   1
Atom  22C    basis set group =>   1
Atom  23C    basis set group =>   1
Atom  24C    basis set group =>   1
Atom  25C    basis set group =>   1
Atom  26C    basis set group =>   1
Atom  27C    basis set group =>   1
Atom  28C    basis set group =>   1
Atom  29C    basis set group =>   1
Atom  30C    basis set group =>   1
Atom  31C    basis set group =>   1
Atom  32C    basis set group =>   1
Atom  33C    basis set group =>   1
Atom  34C    basis set group =>   1
Atom  35C    basis set group =>   1
Atom  36C    basis set group =>   1
Atom  37C    basis set group =>   1
Atom  38H    basis set group =>   2
Atom  39H    basis set group =>   2
Atom  40H    basis set group =>   2
Atom  41H    basis set group =>   2
Atom  42H    basis set group =>   2
Atom  43H    basis set group =>   2
Atom  44H    basis set group =>   2
Atom  45H    basis set group =>   2
Atom  46H    basis set group =>   2
Atom  47H    basis set group =>   2
Atom  48H    basis set group =>   2
Atom  49H    basis set group =>   2
Atom  50H    basis set group =>   2
Atom  51H    basis set group =>   2
Atom  52H    basis set group =>   2
Atom  53H    basis set group =>   2
Atom  54H    basis set group =>   2
Atom  55H    basis set group =>   2
Atom  56H    basis set group =>   2
Atom  57H    basis set group =>   2
----------------------------------
AUXILIARY/JK BASIS SET INFORMATION
----------------------------------
There are 2 groups of distinct atoms

 Group   1 Type C   : 9s8p7d5f3g1h contracted to 9s8p7d5f3g1h pattern {111111111/11111111/1111111/11111/111/1}
 Group   2 Type H   : 6s4p3d2f1g contracted to 6s4p3d2f1g pattern {111111/1111/111/11/1}

Atom   0C    basis set group =>   1
Atom   1C    basis set group =>   1
Atom   2C    basis set group =>   1
Atom   3C    basis set group =>   1
Atom   4C    basis set group =>   1
Atom   5C    basis set group =>   1
Atom   6C    basis set group =>   1
Atom   7C    basis set group =>   1
Atom   8C    basis set group =>   1
Atom   9C    basis set group =>   1
Atom  10C    basis set group =>   1
Atom  11C    basis set group =>   1
Atom  12C    basis set group =>   1
Atom  13C    basis set group =>   1
Atom  14C    basis set group =>   1
Atom  15C    basis set group =>   1
Atom  16C    basis set group =>   1
Atom  17C    basis set group =>   1
Atom  18C    basis set group =>   1
Atom  19C    basis set group =>   1
Atom  20C    basis set group =>   1
Atom  21C    basis set group =>   1
Atom  22C    basis set group =>   1
Atom  23C    basis set group =>   1
Atom  24C    basis set group =>   1
Atom  25C    basis set group =>   1
Atom  26C    basis set group =>   1
Atom  27C    basis set group =>   1
Atom  28C    basis set group =>   1
Atom  29C    basis set group =>   1
Atom  30C    basis set group =>   1
Atom  31C    basis set group =>   1
Atom  32C    basis set group =>   1
Atom  33C    basis set group =>   1
Atom  34C    basis set group =>   1
Atom  35C    basis set group =>   1
Atom  36C    basis set group =>   1
Atom  37C    basis set group =>   1
Atom  38H    basis set group =>   2
Atom  39H    basis set group =>   2
Atom  40H    basis set group =>   2
Atom  41H    basis set group =>   2
Atom  42H    basis set group =>   2
Atom  43H    basis set group =>   2
Atom  44H    basis set group =>   2
Atom  45H    basis set group =>   2
Atom  46H    basis set group =>   2
Atom  47H    basis set group =>   2
Atom  48H    basis set group =>   2
Atom  49H    basis set group =>   2
Atom  50H    basis set group =>   2
Atom  51H    basis set group =>   2
Atom  52H    basis set group =>   2
Atom  53H    basis set group =>   2
Atom  54H    basis set group =>   2
Atom  55H    basis set group =>   2
Atom  56H    basis set group =>   2
Atom  57H    basis set group =>   2


           ************************************************************
           *        Program running with 104 parallel MPI-processes   *
           *              working on a common directory               *
           ************************************************************
------------------------------------------------------------------------------
                             ORCA STARTUP CALCULATIONS
                           -- RI-GTO INTEGRALS CHOSEN --
------------------------------------------------------------------------------
------------------------------------------------------------------------------
                   ___                                                        
                  /   \      - P O W E R E D   B Y -                         
                 /     \                                                     
                 |  |  |   _    _      __       _____    __    __             
                 |  |  |  | |  | |    /  \     |  _  \  |  |  /  |          
                  \  \/   | |  | |   /    \    | | | |  |  | /  /          
                 / \  \   | |__| |  /  /\  \   | |_| |  |  |/  /          
                |  |  |   |  __  | /  /__\  \  |    /   |      \           
                |  |  |   | |  | | |   __   |  |    \   |  |\   \          
                \     /   | |  | | |  |  |  |  | |\  \  |  | \   \       
                 \___/    |_|  |_| |__|  |__|  |_| \__\ |__|  \__/        
                                                                              
                      - O R C A' S   B I G   F R I E N D -                    
                                      &                                       
                       - I N T E G R A L  F E E D E R -                       
                                                                              
 v1 FN, 2020, v2 2021, v3 2022-2024                                           
------------------------------------------------------------------------------


----------------------
SHARK INTEGRAL PACKAGE
----------------------

Number of atoms                             ...     58
Number of basis functions                   ...   2766
Number of shells                            ...    846
Maximum angular momentum                    ...      4
Integral batch strategy                     ... SHARK/LIBINT Hybrid
RI-J (if used) integral strategy            ... SPLIT-RIJ (Revised 2003 algorithm where possible)
Printlevel                                  ...      1
Contraction scheme used                     ... SEGMENTED contraction
Prescreening option                         ... SCHWARTZ
   Thresh                                   ... 1.000e-10
   Tcut                                     ... 1.000e-11
   Tpresel                                  ... 1.000e-11 
Coulomb Range Separation                    ... NOT USED
Exchange Range Separation                   ... NOT USED
Multipole approximations                    ... NOT USED
Finite Nucleus Model                        ... NOT USED
CABS basis                                  ... NOT available
Auxiliary Coulomb fitting basis             ... NOT available
Auxiliary J/K fitting basis                 ... AVAILABLE
   # of basis functions in Aux-JK           ...   6478
   # of shells in Aux-JK                    ...   1574
   Maximum angular momentum in Aux-JK       ...      5
Auxiliary Correlation fitting basis         ... AVAILABLE
   # of basis functions in Aux-C            ...   6478
   # of shells in Aux-C                     ...   1574
   Maximum angular momentum in Aux-C        ...      5
Auxiliary 'external' fitting basis          ... NOT available

Checking pre-screening integrals            ... done (  0.0 sec) Dimension = 846
Check shell pair data                       ... done (  0.0 sec)
Shell pair information
Shell pair cut-off parameter TPreSel        ...   1.0e-11
Total number of shell pairs                 ...    358281
Shell pairs after pre-screening             ...    187473
Total number of primitive shell pairs       ...    929805
Primitive shell pairs kept                  ...    322144
          la=0 lb=0:  28284 shell pairs
          la=1 lb=0:  43051 shell pairs
          la=1 lb=1:  15321 shell pairs
          la=2 lb=0:  25184 shell pairs
          la=2 lb=1:  19493 shell pairs
          la=2 lb=2:   5955 shell pairs
          la=3 lb=0:  14812 shell pairs
          la=3 lb=1:  11603 shell pairs
          la=3 lb=2:   6705 shell pairs
          la=3 lb=3:   1986 shell pairs
          la=4 lb=0:   5845 shell pairs
          la=4 lb=1:   4655 shell pairs
          la=4 lb=2:   2703 shell pairs
          la=4 lb=3:   1542 shell pairs
          la=4 lb=4:    334 shell pairs

Calculating one electron integrals          ... done (  1.1 sec)
Calculating RI/JK V-Matrix + Cholesky decomp... done (  1.7 sec)
Calculating RI/C V-Matrix + Cholesky decomp.... done (  1.6 sec)
Calculating Nuclear repulsion               ... done (  0.0 sec) ENN=   3862.237512648833 Eh

Diagonalization of the overlap matrix:
Smallest eigenvalue                        ... 1.884e-07
Time for diagonalization                   ...    1.214 sec
Threshold for overlap eigenvalues          ... 1.000e-07
Number of eigenvalues below threshold      ... 0

IMPORTANT:
Smallest eigenvalue of S below the DiffSThresh (1.000e-06) while
Thresh>1e-12 and/or TCut>1e-13! In order to avoid SCF convergence issues,
Thresh will be set to at least 1e-12 and TCut to at least 1e-13.
This can be turned off by adding %SCF DiffSThresh -1 END to the input.

Time for construction of square roots      ...    0.777 sec
Total time needed                          ...    2.077 sec

-------------------
DFT GRID GENERATION
-------------------

General Integration Accuracy     IntAcc      ... 4.959
Radial Grid Type                 RadialGrid  ... OptM3 with GC (2021)
Angular Grid (max. ang.)         AngularGrid ... 6 (Lebedev-590)
Angular grid pruning method      GridPruning ... 4 (adaptive)
Weight generation scheme         WeightScheme... mBecke (2022)
Basis function cutoff            BFCut       ... 1.0000e-10
Integration weight cutoff        WCut        ... 1.0000e-14
Partially contracted basis set               ... off
Rotationally invariant grid construction     ... off
Angular grids for H and He will be reduced by one unit
Diffuse basis detected: some atoms will have their outermost
                        angular grid increased by 1.

Total number of grid points                  ...   714982
Total number of batches                      ...    11198
Average number of points per batch           ...       63
Average number of grid points per atom       ...    12327
Initializing property integral containers    ... done (  0.0 sec)

SHARK setup successfully completed in  16.9 seconds

Maximum memory used throughout the entire STARTUP-calculation: 369.4 MB


           ************************************************************
           *        Program running with 104 parallel MPI-processes   *
           *              working on a common directory               *
           ************************************************************
-------------------------------------------------------------------------------
                                 ORCA GUESS
                   Start orbitals & Density for SCF / CASSCF
-------------------------------------------------------------------------------

------------
SCF SETTINGS
------------
Hamiltonian:
 Density Functional     Method          .... DFT(GTOs)
 Exchange Functional    Exchange        .... PBE
   PBE kappa parameter   XKappa         ....  0.804000
   PBE mue parameter    XMuePBE         ....  0.219520
 Correlation Functional Correlation     .... P86
 LDA part of GGA corr.  LDAOpt          .... VWN-5
 Gradients option       PostSCFGGA      .... off
 Hybrid DFT is turned on
   Fraction HF Exchange ScalHFX         ....  0.690000
   Scaling of DF-GGA-X  ScalDFX         ....  0.310000
   Scaling of DF-GGA-C  ScalDFC         ....  0.403800
   Scaling of DF-LDA-C  ScalLDAC        ....  0.403800
   Perturbative correction              ....  1.000000
 RI-approximation to the Coulomb term is turned on
   Number of AuxJK basis functions      .... 6478
   RI-JK (J+K treated both via RI)      .... on


General Settings:
 Integral files         IntName         .... compas3x_hc_c38h20_0pent_1_qz_riri
 Hartree-Fock type      HFTyp           .... RHF
 Total Charge           Charge          ....    0
 Multiplicity           Mult            ....    1
 Number of Electrons    NEL             ....  248
 Basis Dimension        Dim             .... 2766
 Nuclear Repulsion      ENuc            ....   3862.2375126488 Eh

Convergence Acceleration:
 AO-DIIS                CNVDIIS         .... on
   Start iteration      DIISMaxIt       ....    12
   Startup error        DIISStart       ....  0.200000
   # of expansion vecs  DIISMaxEq       ....     5
   Bias factor          DIISBfac        ....   1.050
   Max. coefficient     DIISMaxC        ....  10.000
 MO-DIIS                CNVKDIIS        .... off
 Trust-Rad. Augm. Hess. CNVTRAH         .... auto
   Auto Start mean grad. ratio tolernc. ....  1.125000
   Auto Start start iteration           ....    50
   Auto Start num. interpolation iter.  ....    10
   Max. Number of Micro iterations      ....    24
   Max. Number of Macro iterations      .... Maxiter - #DIIS iter
   Number of Davidson start vectors     ....     2
   Converg. threshold    (grad. norm)   ....   5.000e-05
   Grad. Scal. Fac. for Micro threshold ....   0.100
   Minimum threshold for Micro iter.    ....   1.000e-02
   NR start threshold (gradient norm)   ....   1.000e-04
   Initial trust radius                 ....   0.400
   Minimum AH scaling param. (alpha)    ....   1.000
   Maximum AH scaling param. (alpha)    .... 1000.000
   Quad. conv. algorithm                .... NR
   White noise on init. David. guess    .... on
   Maximum white noise                  ....   0.010
   Pseudo random numbers                .... off
   Inactive MOs                         .... canonical
   Orbital update algorithm             .... Taylor
   Preconditioner                       .... Diag
   Full preconditioner red. dimension   ....   250
 SOSCF                  CNVSOSCF        .... on
   Start iteration      SOSCFMaxIt      ....   150
   Startup grad/error   SOSCFStart      ....  0.003300
   Hessian update       SOSCFHessUp     .... L-BFGS
 Level Shifting         CNVShift        .... on
   Level shift para.    LevelShift      ....    0.2500
   Turn off err/grad.   ShiftErr        ....    0.0010
 Zerner damping         CNVZerner       .... off
 Static damping         CNVDamp         .... on
   Fraction old density DampFac         ....    0.7000
   Max. Damping (<1)    DampMax         ....    0.9800
   Min. Damping (>=0)   DampMin         ....    0.0000
   Turn off err/grad.   DampErr         ....    0.1000

SCF Procedure:
 Maximum # iterations   MaxIter         ....   125
 SCF integral mode      SCFMode         .... Direct
   Integral package                     .... SHARK and LIBINT hybrid scheme
 Reset frequency        DirectResetFreq ....    20
 Integral Threshold     Thresh          ....  1.000e-12 Eh
 Primitive CutOff       TCut            ....  1.000e-13 Eh

Convergence Tolerance:
 Convergence Check Mode ConvCheckMode   .... Total+1el-Energy
 Convergence forced     ConvForced      .... 0
 Energy Change          TolE            ....  1.000e-06 Eh
 1-El. energy change                    ....  1.000e-03 Eh
 Orbital Gradient       TolG            ....  5.000e-05
 Orbital Rotation angle TolX            ....  5.000e-05
 DIIS Error             TolErr          ....  1.000e-06

------------------------------
INITIAL GUESS: MODEL POTENTIAL
------------------------------
Loading Hartree-Fock densities                     ... done
Calculating cut-offs                               ... done
Initializing the effective Hamiltonian             ... done
Setting up the integral package (SHARK)            ... done
Starting the Coulomb interaction                   ... done (   0.8 sec)
Making the grid                                    ... done (   0.5 sec)
Mapping shells                                     ... done
Starting the XC term evaluation                    ... done (   0.2 sec)
  promolecular density results
     # of electrons  =    248.000279106
     EX              =   -200.568868135
     EC              =      0.288680676
     EX+EC           =   -200.280187459
Transforming the Hamiltonian                       ... done (   0.6 sec)
Diagonalizing the Hamiltonian                      ... done (   0.8 sec)
Back transforming the eigenvectors                 ... done (   0.5 sec)
Now organizing SCF variables                       ... done
                      ------------------
                      INITIAL GUESS DONE (   4.4 sec)
                      ------------------
             **** ENERGY FILE WAS UPDATED (compas3x_hc_c38h20_0pent_1_qz_riri.en.tmp) ****
Finished Guess after  23.0 sec
Maximum memory used throughout the entire GUESS-calculation: 426.5 MB


           ************************************************************
           *        Program running with 104 parallel MPI-processes   *
           *              working on a common directory               *
           ************************************************************

-------------------------------------------------------------------------------------------
                                      ORCA LEAN-SCF
                              memory conserving SCF solver
-------------------------------------------------------------------------------------------


Warning (ORCA_SCF): Not enough memory available!
                    Memory available for SCF calculation:       1024.0 MB
                    Memory needed (estimated)           :       1345.1 MB


----------------------------------------D-I-I-S--------------------------------------------
Iteration    Energy (Eh)           Delta-E    RMSDP     MaxDP     DIISErr   Damp  Time(sec)
-------------------------------------------------------------------------------------------
    1    -1453.8897492981996038     0.00e+00  3.99e-04  7.95e-02  1.51e-01  0.700  49.3
    2    -1453.6296376739101106     2.60e-01  5.95e-04  1.46e-01  1.34e-01  0.700  52.6
                               ***Turning on AO-DIIS***
    3    -1453.7958261933708854    -1.66e-01  2.58e-04  5.97e-02  7.86e-02  0.700  49.2
    4    -1454.1190867237692146    -3.23e-01  8.21e-04  2.14e-01  4.08e-02  0.000  50.7
    5    -1454.6417185514419543    -5.23e-01  1.99e-04  6.16e-02  3.35e-02  0.000  50.9
    6    -1454.6636033900076654    -2.19e-02  8.14e-05  1.28e-02  1.56e-02  0.000  51.6
    7    -1454.6690468381484607    -5.44e-03  6.35e-05  1.60e-02  5.20e-03  0.000  51.1
                              *** Initializing SOSCF ***
---------------------------------------S-O-S-C-F--------------------------------------
Iteration    Energy (Eh)           Delta-E    RMSDP     MaxDP     MaxGrad    Time(sec)
--------------------------------------------------------------------------------------
    8    -1454.6696873647770190    -6.41e-04  4.78e-05  1.18e-02  1.18e-03    56.0
    9    -1454.6697431469519870    -5.58e-05  2.19e-05  5.54e-03  1.91e-04    48.8
   10    -1454.6697503389241319    -7.19e-06  2.98e-05  7.40e-03  2.14e-04    50.3
   11    -1454.6697530054616436    -2.67e-06  1.04e-05  2.81e-03  7.75e-05    48.4
   12    -1454.6697537785767054    -7.73e-07  4.01e-06  1.13e-03  1.55e-05    49.2
                 **** Energy Check signals convergence ****

               *****************************************************
               *                     SUCCESS                       *
               *           SCF CONVERGED AFTER  12 CYCLES          *
               *****************************************************

             **** ENERGY FILE WAS UPDATED (compas3x_hc_c38h20_0pent_1_qz_riri.en.tmp) ****

----------------
TOTAL SCF ENERGY
----------------

Total Energy       :      -1454.66975377857671 Eh          -39583.57639 eV

Components:
Nuclear Repulsion  :       3862.23751264883322 Eh          105096.82574 eV
Electronic Energy  :      -5316.90726642740992 Eh         -144680.40213 eV
One Electron Energy:      -9655.85155727836172 Eh         -262749.07878 eV
Two Electron Energy:       4338.94429085095180 Eh          118068.67665 eV

Virial components:
Potential Energy   :      -2906.28200575510800 Eh          -79083.95393 eV
Kinetic Energy     :       1451.61225197653107 Eh           39500.37754 eV
Virial Ratio       :          2.00210627996415

DFT components:
N(Alpha)           :      123.999970928528 electrons
N(Beta)            :      123.999970928528 electrons
N(Total)           :      247.999941857055 electrons
E(X)               :      -63.216291552048 Eh       
E(C)               :       -3.714680718181 Eh       
E(XC)              :      -66.930972270229 Eh       

---------------
SCF CONVERGENCE
---------------

  Last Energy change         ...    7.7312e-07  Tolerance :   1.0000e-06
  Last MAX-Density change    ...    1.1323e-03  Tolerance :   1.0000e-05
  Last RMS-Density change    ...    4.0084e-06  Tolerance :   1.0000e-06
  Last DIIS Error            ...    1.1821e-03  Tolerance :   1.0000e-06
  Last Orbital Gradient      ...    1.5477e-05  Tolerance :   5.0000e-05
  Last Orbital Rotation      ...    5.5264e-05  Tolerance :   5.0000e-05


----------------
ORBITAL ENERGIES
----------------

  NO   OCC          E(Eh)            E(eV) 
   0   2.0000     -10.838323      -294.9258 
   1   2.0000     -10.837813      -294.9119 
   2   2.0000     -10.836984      -294.8893 
   3   2.0000     -10.836511      -294.8764 
   4   2.0000     -10.835968      -294.8617 
   5   2.0000     -10.835631      -294.8525 
   6   2.0000     -10.833862      -294.8044 
   7   2.0000     -10.833630      -294.7981 
   8   2.0000     -10.832741      -294.7739 
   9   2.0000     -10.831871      -294.7502 
  10   2.0000     -10.830910      -294.7240 
  11   2.0000     -10.830055      -294.7008 
  12   2.0000     -10.829869      -294.6957 
  13   2.0000     -10.829354      -294.6817 
  14   2.0000     -10.829164      -294.6765 
  15   2.0000     -10.828510      -294.6587 
  16   2.0000     -10.828176      -294.6496 
  17   2.0000     -10.827275      -294.6251 
  18   2.0000     -10.824945      -294.5617 
  19   2.0000     -10.823478      -294.5218 
  20   2.0000     -10.822923      -294.5067 
  21   2.0000     -10.822791      -294.5031 
  22   2.0000     -10.822418      -294.4930 
  23   2.0000     -10.822323      -294.4904 
  24   2.0000     -10.822092      -294.4841 
  25   2.0000     -10.821923      -294.4795 
  26   2.0000     -10.821840      -294.4772 
  27   2.0000     -10.821249      -294.4612 
  28   2.0000     -10.821211      -294.4601 
  29   2.0000     -10.820666      -294.4453 
  30   2.0000     -10.820589      -294.4432 
  31   2.0000     -10.820314      -294.4357 
  32   2.0000     -10.820272      -294.4346 
  33   2.0000     -10.818185      -294.3778 
  34   2.0000     -10.818064      -294.3745 
  35   2.0000     -10.817031      -294.3464 
  36   2.0000     -10.815978      -294.3177 
  37   2.0000     -10.814852      -294.2871 
  38   2.0000      -1.104330       -30.0503 
  39   2.0000      -1.090883       -29.6844 
  40   2.0000      -1.068374       -29.0719 
  41   2.0000      -1.050983       -28.5987 
  42   2.0000      -1.043317       -28.3901 
  43   2.0000      -1.019047       -27.7297 
  44   2.0000      -1.007678       -27.4203 
  45   2.0000      -0.995049       -27.0767 
  46   2.0000      -0.982284       -26.7293 
  47   2.0000      -0.968697       -26.3596 
  48   2.0000      -0.950953       -25.8767 
  49   2.0000      -0.933614       -25.4049 
  50   2.0000      -0.920911       -25.0593 
  51   2.0000      -0.917899       -24.9773 
  52   2.0000      -0.909361       -24.7450 
  53   2.0000      -0.903874       -24.5957 
  54   2.0000      -0.891186       -24.2504 
  55   2.0000      -0.878126       -23.8950 
  56   2.0000      -0.852774       -23.2052 
  57   2.0000      -0.809215       -22.0199 
  58   2.0000      -0.789228       -21.4760 
  59   2.0000      -0.778182       -21.1754 
  60   2.0000      -0.776852       -21.1392 
  61   2.0000      -0.773698       -21.0534 
  62   2.0000      -0.769240       -20.9321 
  63   2.0000      -0.758200       -20.6317 
  64   2.0000      -0.750017       -20.4090 
  65   2.0000      -0.727023       -19.7833 
  66   2.0000      -0.697749       -18.9867 
  67   2.0000      -0.684371       -18.6227 
  68   2.0000      -0.676678       -18.4133 
  69   2.0000      -0.660832       -17.9821 
  70   2.0000      -0.656113       -17.8538 
  71   2.0000      -0.650630       -17.7045 
  72   2.0000      -0.635077       -17.2813 
  73   2.0000      -0.629104       -17.1188 
  74   2.0000      -0.621974       -16.9248 
  75   2.0000      -0.609828       -16.5943 
  76   2.0000      -0.598776       -16.2935 
  77   2.0000      -0.592063       -16.1108 
  78   2.0000      -0.582864       -15.8605 
  79   2.0000      -0.580089       -15.7850 
  80   2.0000      -0.570936       -15.5359 
  81   2.0000      -0.564302       -15.3554 
  82   2.0000      -0.561066       -15.2674 
  83   2.0000      -0.545629       -14.8473 
  84   2.0000      -0.543658       -14.7937 
  85   2.0000      -0.535701       -14.5772 
  86   2.0000      -0.533246       -14.5104 
  87   2.0000      -0.527578       -14.3561 
  88   2.0000      -0.526806       -14.3351 
  89   2.0000      -0.523249       -14.2383 
  90   2.0000      -0.518620       -14.1124 
  91   2.0000      -0.517427       -14.0799 
  92   2.0000      -0.507929       -13.8214 
  93   2.0000      -0.503917       -13.7123 
  94   2.0000      -0.502211       -13.6658 
  95   2.0000      -0.492348       -13.3975 
  96   2.0000      -0.484336       -13.1794 
  97   2.0000      -0.481688       -13.1074 
  98   2.0000      -0.475420       -12.9368 
  99   2.0000      -0.472086       -12.8461 
 100   2.0000      -0.466601       -12.6969 
 101   2.0000      -0.462126       -12.5751 
 102   2.0000      -0.459347       -12.4995 
 103   2.0000      -0.456406       -12.4194 
 104   2.0000      -0.448699       -12.2097 
 105   2.0000      -0.447135       -12.1672 
 106   2.0000      -0.429078       -11.6758 
 107   2.0000      -0.423891       -11.5347 
 108   2.0000      -0.417276       -11.3547 
 109   2.0000      -0.411344       -11.1932 
 110   2.0000      -0.406697       -11.0668 
 111   2.0000      -0.397901       -10.8274 
 112   2.0000      -0.391324       -10.6485 
 113   2.0000      -0.375547       -10.2191 
 114   2.0000      -0.362157        -9.8548 
 115   2.0000      -0.341519        -9.2932 
 116   2.0000      -0.325530        -8.8581 
 117   2.0000      -0.307034        -8.3548 
 118   2.0000      -0.300335        -8.1725 
 119   2.0000      -0.296373        -8.0647 
 120   2.0000      -0.289840        -7.8870 
 121   2.0000      -0.266627        -7.2553 
 122   2.0000      -0.239508        -6.5173 
 123   2.0000      -0.212495        -5.7823 
 124   0.0000      -0.028600        -0.7783 
 125   0.0000       0.005468         0.1488 
 126   0.0000       0.022285         0.6064 
 127   0.0000       0.040700         1.1075 
 128   0.0000       0.047709         1.2982 
 129   0.0000       0.059232         1.6118 
 130   0.0000       0.065373         1.7789 
 131   0.0000       0.069893         1.9019 
 132   0.0000       0.074912         2.0385 
 133   0.0000       0.076278         2.0756 
 134   0.0000       0.077727         2.1151 
*Only the first 10 virtual orbitals were printed.
-------
TIMINGS
-------

Total SCF time: 0 days 0 hours 10 min 28 sec 

Total time                  ....     628.965 sec
Sum of individual times     ....     628.541 sec  ( 99.9%)

SCF preparation             ....      16.889 sec  (  2.7%)
Fock matrix formation       ....     554.501 sec  ( 88.2%)
  Startup                   ....       3.640 sec  (  0.7% of F)
  RI-JK                     ....     513.610 sec  ( 92.6% of F)
  XC integration            ....      28.125 sec  (  5.1% of F)
    XC Preparation          ....       0.000 sec  (  0.0% of XC)
    Basis function eval.    ....       1.730 sec  (  6.2% of XC)
    Density eval.           ....       5.872 sec  ( 20.9% of XC)
    XC-Functional eval.     ....       0.048 sec  (  0.2% of XC)
    XC-Potential eval.      ....       7.657 sec  ( 27.2% of XC)
Diagonalization             ....       0.000 sec  (  0.0%)
Density matrix formation    ....       8.336 sec  (  1.3%)
Total Energy calculation    ....       2.480 sec  (  0.4%)
Population analysis         ....       0.000 sec  (  0.0%)
Orbital Transformation      ....       5.622 sec  (  0.9%)
Orbital Orthonormalization  ....       0.000 sec  (  0.0%)
DIIS solution               ....      30.534 sec  (  4.9%)
SOSCF solution              ....       9.958 sec  (  1.6%)
Finished LeanSCF after 629.6 sec

Maximum memory used throughout the entire LEANSCF-calculation: 1418.4 MB


           ************************************************************
           *        Program running with 104 parallel MPI-processes   *
           *              working on a common directory               *
           ************************************************************

------------------------------------------------------------------------------
                                ORCA  MP2 
------------------------------------------------------------------------------


-------------
RI-MP2 ENERGY
-------------
Dimension of the orbital basis            ... 2766
Dimension of the AuxC basis               ... 6478
Memory devoted to MP2                     ... 4096 MB   
Data format for matrix containers         ... DOUBLE
Compression type for matrix containers    ... UNCOMPRESSED
Scaling for aa/bb pairs                   ...   5.710e-02
Scaling for ab pairs                      ...   5.979e-01
Overall scaling of the MP2 energy         ...   1.000e+00

-----------------------
SHARK RI TRANSFORMATION
-----------------------

Number of basis functions                ...   2766
Number of aux functions                  ...   6478
Number of operators                      ...      1
Generation of IJK                        ... NO
Generation of IAK                        ... YES
Generation of ABK                        ... NO
Orbital Range Operator  0:    0- 123 to  124-2765

Aux basis identifier                     ...   AUXC
Contraction scheme used                  ... SEGMENTED
Do orthogonalization                     ... YES
All operator combinations                ... NO
Transpose (ia|K)                         ... NO
Integral generator used                  ... LIBINT
Starting integral generation + trafo... 
Half trafo (segmented) done. Total time = 19.6 sec. integrals=  3.9 sec trafo= 13.7 sec
Integral generation and half transformation done ( 19.6 sec)

Reading or making V^(-1/2)          ... done (  0.7 sec)
Sorting IAK integrals               ... done ( 24.2 sec)

SHARK RI integral transformation done. Total time = 44.8 sec.

Opening buffers                              ... done

Starting loop over batches of integrals:

Operator 0  - window                       ... (  0-123)x(124-2765)
Operator 0  - Memory available             ...  4096 MB
Operator 0  - Memory needed per MO         ... 130.6 MB
Operator 0  - Number of orbitals per batch ... 2
Operator 0  - Number of batches            ... 1

OPERATOR  0   PASS   0:  MOs     0 ...    1 +    2 ...    3 +    4 ...    5 +    6 ...    7
                            +    8 ...    9 +   10 ...   11 +   12 ...   13 +   14 ...   15
                            +   16 ...   17 +   18 ...   19 +   20 ...   21 +   22 ...   23
                            +   24 ...   25 +   26 ...   27 +   28 ...   29 +   30 ...   31
                            +   32 ...   33 +   34 ...   35 +   36 ...   37 +   38 ...   39
                            +   40 ...   41 +   42 ...   43 +   44 ...   45 +   46 ...   47
                            +   48 ...   49 +   50 ...   51 +   52 ...   53 +   54 ...   55
                            +   56 ...   57 +   58 ...   59 +   60 ...   61 +   62 ...   63
                            +   64 ...   65 +   66 ...   67 +   68 ...   69 +   70 ...   71
                            +   72 ...   73 +   74 ...   75 +   76 ...   77 +   78 ...   79
                            +   80 ...   81 +   82 ...   83 +   84 ...   85 +   86 ...   87
                            +   88 ...   89 +   90 ...   91 +   92 ...   93 +   94 ...   95
                            +   96 ...   97 +   98 ...   99 +  100 ...  101 +  102 ...  103
                            +  104 ...  105 +  106 ...  107 +  108 ...  109 +  110 ...  111
                            +  112 ...  113 +  114 ...  115 +  116 ...  117 +  118 ...  119
                            +  120 ...  121 +  122 ...  123
  Reading integrals       ... ok
Time spent in pair loops =   402.165 sec

-----------------------------------------------
 RI-MP2 CORRELATION ENERGY:     -3.746550761 Eh
-----------------------------------------------


-------
TIMINGS
-------

Total time                :  453.458 sec
Integral trafo            :   45.270 sec ( 10.0%)
I/O of integrals          :    0.338 sec (  0.1%)
K(i,j) operators          :    4.835 sec (  1.1%)
T(i,j) pair energies      :    0.490 sec (  0.1%)
V**(-1/2)                 :    6.020 sec (  1.3%)


---------------------------------------
MP2 TOTAL ENERGY:    -1458.416304540 Eh
---------------------------------------

Maximum memory used throughout the entire MP2-calculation: 1043.4 MB


-------------------------------------------------------------------------------
                          DFT DISPERSION CORRECTION                            
                                                                               
                                DFTD4 V3.4.0                                   
-------------------------------------------------------------------------------
The REV-DSD-PBEP86-2021 functional is recognized
A user input s6-coefficient scaling factor has been recognized
A user input a1-coefficient scaling factor has been recognized
A user input s8-coefficient scaling factor has been recognized
A user input a2-coefficient scaling factor has been recognized
A user input s9-coefficient scaling factor has been recognized
Active option DFTDOPT                   ...         5   

-------------------------   ----------------
Dispersion correction           -0.065662564
-------------------------   ----------------


-------------------------   --------------------
FINAL SINGLE POINT ENERGY     -1458.481967104014
-------------------------   --------------------



           ************************************************************
           *        Program running with 104 parallel MPI-processes   *
           *              working on a common directory               *
           ************************************************************

------------------------------------------------------------------------------
                              ORCA PROPERTY CALCULATIONS
------------------------------------------------------------------------------

GBWName                                 ... compas3x_hc_c38h20_0pent_1_qz_riri.gbw
Number of atoms                         ...     58
Number of basis functions               ...   2766
Max core memory                         ...   1024 MB

Electric properties:
Dipole moment                           ... YES
Quadrupole moment                       ...  NO
Static polarizability (Dipole/Dipole)   ...  NO
Static polarizability (Dipole/Quad.)    ...  NO
Static polarizability (Quad./Quad.)     ...  NO
Static polarizability (Velocity)        ...  NO

Atomic electric properties:
Dipole moment                           ...  NO
Quadrupole moment                       ...  NO
Static polarizability                   ...  NO

Choice of electric origin               ... Center of mass
Position of electric origin             ...     0.100482     0.082735    -0.022786

General magnetic properties:
Magnetizability                         ...  NO

EPR properties:
g-Tensor (aka g-matrix)                 ...  NO
Zero-Field splitting spin-orbit         ...  NO
Zero-field splitting spin-spin          ...  NO
Hyperfine couplings                     ...  NO (   0 nuclei)
Quadrupole couplings                    ...  NO (   0 nuclei)
Contact density                         ...  NO (   0 nuclei)

NMR properties:
Chemical shifts                         ...  NO (   0 nuclei)
Spin-rotation constants                 ...  NO (   0 nuclei)
Spin-spin couplings                     ...  NO (   0 nuclei,    0 pairs)

Choice of magnetic origin               ... GIAO
Position of magnetic origin             ...     0.000000     0.000000     0.000000

Properties with geometric perturbations:
SCF Hessian                             ...  NO
IR spectrum                             ...  NO
VCD spectrum                            ...  NO
X-ray spectroscopy properties:
SCF XES/XAS/RIXS spectra                ...  NO


-------------
DIPOLE MOMENT
-------------

Method             : SCF
Type of density    : Electron Density
Multiplicity       :   1
Irrep              :   0
Energy             : -1454.6697537785767054 Eh
Relativity type    : 
Basis              : AO
                                X                 Y                 Z
Electronic contribution:      3.029259352       2.551227318      -0.667076872
Nuclear contribution   :     -3.162531066      -2.603671218       0.718268587
                        -----------------------------------------
Total Dipole Moment    :     -0.133271713      -0.052443900       0.051191715
                        -----------------------------------------
Magnitude (a.u.)       :      0.152093076
Magnitude (Debye)      :      0.386589877



--------------------
Rotational spectrum 
--------------------
 
Rotational constants in cm-1:             0.006323             0.003090             0.002260 
Rotational constants in MHz :           189.551150            92.624164            67.760441 

Dipole components along the rotational axes: 
x,y,z [a.u.] :     0.050487    -0.142372     0.017707 
x,y,z [Debye]:     0.128328    -0.361881     0.045009 

 

Dipole moment calculation done in   0.6 sec 

Maximum memory used throughout the entire PROP-calculation: 476.7 MB

--------------------------------
SUGGESTED CITATIONS FOR THIS RUN
--------------------------------

Below you find a list of papers that are relevant to this ORCA run
We neither can nor want to force you to cite these papers, but we appreciate if you do
You receive ORCA, which is the product of decades of hard work by many enthusiastic individuals, for free
The only thing we kindly ask in return is that you cite our papers,
We deeply appreciate it, if you show your appreciation for ORCA by not just citing the generic ORCA reference.

Please note that relegating all ORCA citations to the supporting information does *not* help us.
SI sections are not indexed - citations you put there will not count into any citation statistics
But we need these citations in order to attract the funding resources that allow us to do what we are doing

Therefore, if you are a happy ORCA user, please consider citing a few of the papers listed below in the main body of your paper

In addition to the list printed below, the program has created the file compas3x_hc_c38h20_0pent_1_qz_riri.bibtex that contains the list in bibtex format
You can import this file easily into all common literature databanks and citation aid programs


List of essential papers. We consider these as the minimum necessary citations

  1. Neese,F.
     Software update: the ORCA program system, version 5.0
     WIRES Comput. Molec. Sci., 2022 12(1)e1606
     doi.org/10.1002/wcms.1606

List of papers to cite with high priority. The work reported in these papers was absolutely
necessary for this run to complete.
Our perspective: the developers of density functionals and basis sets usually get cited in chemistry papers
Good! But without the algorithms to do something with them, the functionals or basis sets would not do anything.
Hence, in our opinion, the algorithm design and method developments papers are equally worthy of getting cited

  1. Neese,F.
     An improvement of the resolution of the identity approximation for the formation of the Coulomb matrix
     J. Comp. Chem., 2003 24(14)1740-1747
     doi.org/10.1002/jcc.10318
  2. Kossmann,S.; Neese,F.
     Comparison of two efficient approximate Hartee-Fock approaches
     Chem. Phys. Lett., 2009 481 240-243
     doi.org/10.1016/j.cplett.2009.09.073
  3. Neese,F.
     The SHARK Integral Generation and Digestion System
     J. Comp. Chem., 2022  1-16
     doi.org/10.1002/jcc.26942
  4. Caldeweyher,E.; Bannwarth,C.; Grimme,S.
     Extension of the D3 dispersion coefficient model
     J. Chem. Phys., 2017 147 034112
     doi.org/10.1063/1.4993215
  5. Caldeweyher,E.; Ehlert,S.; Hansen,A.; Neugebauer,H.; Spicher,S.; Bannwarth,C.; Grimme,S.
     A generally applicable atomic-charge dependent London dispersion correction
     J. Chem. Phys., 2019 150 154122
     doi.org/10.1063/1.5090222
  6. Caldeweyher,E.; Mewes,J.; Ehlert,S.; Grimme,S.
     Extension and evaluation of the D4 London-dispersion model for periodic systems
     Phys. Chem. Chem. Phys., 2020 22(16)8499-8512
     doi.org/10.1039/D0CP00502A
  7. Wittmann,L.; Gordiy,I.; Friede,M.; Helmich-Paris,B.; Grimme,S.; Hansen,A.; Bursch,M.
     Extension of the D3 and D4 London Dispersion Corrections to the full Actinides Series
     Phys. Chem. Chem. Phys., 2024 26(32)21379-21394
     doi.org/https://doi.org/10.1039/D4CP01514B 

List of suggested additional citations. These are papers that are important in the 'surrounding' of 
of this run, or papers that preceded the highly important papers. If you like your results we are grateful for a citation.

  1. Neese,F.
     The ORCA program system
     WIRES Comput. Molec. Sci., 2012 2(1)73-78
     doi.org/10.1002/wcms.81
  2. Neese,F.
     Software update: the ORCA program system, version 4.0
     WIRES Comput. Molec. Sci., 2018 8(1)1-6
     doi.org/10.1002/wcms.1327
  3. Neese,F.; Wennmohs,F.; Becker,U.; Riplinger,C.
     The ORCA quantum chemistry program package
     J. Chem. Phys., 2020 152 Art. No. L224108
     doi.org/10.1063/5.0004608

List of optional additional citations

  1. Neese,F.
     Approximate second-order SCF convergence for spin unrestricted wavefunctions
     Chem. Phys. Lett., 2000 325(1-3)93-98
     doi.org/10.1016/s0009-2614(00)00662-x

Timings for individual modules:

Sum of individual times          ...     1180.890 sec (=  19.681 min)
Startup calculation              ...       33.548 sec (=   0.559 min)   2.8 %
SCF iterations                   ...      655.940 sec (=  10.932 min)  55.5 %
Property calculations            ...       18.651 sec (=   0.311 min)   1.6 %
MP2 module                       ...      472.751 sec (=   7.879 min)  40.0 %
                             ****ORCA TERMINATED NORMALLY****
TOTAL RUN TIME: 0 days 0 hours 19 minutes 58 seconds 15 msec
