
                                 *****************
                                 * O   R   C   A *
                                 *****************

                                            #,                                       
                                            ###                                      
                                            ####                                     
                                            #####                                    
                                            ######                                   
                                           ########,                                 
                                     ,,################,,,,,                         
                               ,,#################################,,                 
                          ,,##########################################,,             
                       ,#########################################, ''#####,          
                    ,#############################################,,   '####,        
                  ,##################################################,,,,####,       
                ,###########''''           ''''###############################       
              ,#####''   ,,,,##########,,,,          '''####'''          '####       
            ,##' ,,,,###########################,,,                        '##       
           ' ,,###''''                  '''############,,,                           
         ,,##''                                '''############,,,,        ,,,,,,###''
      ,#''                                            '''#######################'''  
     '                                                          ''''####''''         
             ,#######,   #######,   ,#######,      ##                                
            ,#'     '#,  ##    ##  ,#'     '#,    #''#        ,####,   ,####,        
            ##       ##  ##   ,#'  ##            #'  '#       #'       #'  '#        
            ##       ##  #######   ##           ,######,      #####,   #    #        
            '#,     ,#'  ##    ##  '#,     ,#' ,#      #,     #,   #   #,  ,#        
             '#######'   ##     ##  '#######'  #'      '#     '####' # '####'        



                #########################################################
                #                        -***-                          #
                #          Department of theory and spectroscopy        #
                #                                                       #
                #                      Frank Neese                      #
                #                                                       #
                #     Directorship, Architecture, Infrastructure        #
                #                    SHARK, DRIVERS                     #
                #        Core code/Algorithms in most modules           #
                #                                                       #
                #        Max Planck Institute fuer Kohlenforschung      #
                #                Kaiser Wilhelm Platz 1                 #
                #                 D-45470 Muelheim/Ruhr                 #
                #                      Germany                          #
                #                                                       #
                #                  All rights reserved                  #
                #                        -***-                          #
                #########################################################


                         Program Version 6.0.1  -  RELEASE   -


 With contributions from (in alphabetic order):
[Max-Planck-Institut fuer Kohlenforschung]                               
  Daniel Aravena         : Magnetic Suceptibility                        
  Michael Atanasov       : Ab Initio Ligand Field Theory (pilot matlab implementation)
  Alexander A. Auer      : GIAO ZORA, VPT2 properties, NMR spectrum      
  Ute Becker             : All parallelization in ORCA, NUMFREQ, NUMCALC 
  Giovanni Bistoni       : ED, misc. LED, open-shell LED, HFLD           
  Martin Brehm           : Molecular dynamics                            
  Dmytro Bykov           : pre 5.0 version of the SCF Hessian            
  Marcos Casanova-Páez   : Triplet and SCS-CIS(D). UHF-(DLPNO)-IP/EA/STEOM-CCSD. UHF-CVS-IP/STEOM-CCSD   
  Vijay G. Chilkuri      : MRCI spin determinant printing, contributions to CSF-ICE 
  Pauline Colinet        : FMM embedding                                 
  Dipayan Datta          : RHF DLPNO-CCSD density                        
  Achintya Kumar Dutta   : EOM-CC, STEOM-CC                              
  Nicolas Foglia         : Exact transition moments, OPA infrastructure, MCD improvements    
  Dmitry Ganyushin       : Spin-Orbit,Spin-Spin,Magnetic field MRCI      
  Miquel Garcia-Rates    : C-PCM and meta-GGA Hessian, CCSD/C-PCM, Gaussian charge scheme 
  Tiago L. C. Gouveia    : GS-ROHF, GS-ROCIS                             
  Yang Guo               : DLPNO-NEVPT2, F12-NEVPT2, CIM, IAO-localization        
  Andreas Hansen         : Spin unrestricted coupled pair/coupled cluster methods 
  Ingolf Harden          : AUTO-CI MPn and infrastructure                
  Benjamin Helmich-Paris : MC-RPA, TRAH-(SCF,CASSCF), AVAS, COSX integrals, SCF dyn. polar. 
  Lee Huntington         : MR-EOM, pCC                                   
  Robert Izsak           : Overlap fitted RIJCOSX, COSX-SCS-MP3, EOM     
  Riya Kayal             : Wick's Theorem for AUTO-CI, AUTO-CI UHF-CCSDT 
  Emily Kempfer          : AUTO-CI, RHF CISDT and CCSDT                  
  Christian Kollmar      : KDIIS, OOCD, Brueckner-CCSD(T), CCSD density, CASPT2, CASPT2-K, improved NEVPT2 
  Axel Koslowski         : Symmetry handling                             
  Simone Kossmann        : meta-GGA functionals, TD-DFT gradient, OOMP2, (MP2 Hessian; deprecated post 5.0) 
  Lucas Lang             : DCDCAS                                        
  Marvin Lechner         : AUTO-CI (C++ implementation), FIC-MRCC        
  Spencer Leger          : CASSCF response                               
  Dagmar Lenk            : GEPOL surface, SMD, ORCA-2-JSON               
  Dimitrios Liakos       : Extrapolation schemes; Compound Job, initial MDCI parallelization 
  Dimitrios Manganas     : Further ROCIS development; embedding schemes. LFT, Crystal Embedding 
  Dimitrios Pantazis     : SARC Basis sets                               
  Anastasios Papadopoulos: AUTO-CI, single reference methods and gradients 
  Taras Petrenko         : pre 6.0 DFT Hessian and TD-DFT gradient, (ASA, deprecated), ECA, 1-Electron XAS/XES, NRVS 
  Peter Pinski           : DLPNO-MP2, DLPNO-MP2 Gradient                 
  Christoph Reimann      : Effective Core Potentials                     
  Marius Retegan         : Local ZFS, SOC                                
  Christoph Riplinger    : Optimizer, TS searches, QM/MM, DLPNO-CCSD(T), (RO)-DLPNO pert. Triples 
  Michael Roemelt        : Original ROCIS implementation                 
  Masaaki Saitow         : Open-shell DLPNO-CCSD energy and density      
  Barbara Sandhoefer     : DKH picture change effects                    
  Kantharuban Sivalingam : CASSCF convergence/infrastructure, NEVPT2 and variants, FIC-MRCI 
  Bernardo de Souza      : ESD, SOC TD-DFT                               
  Georgi L. Stoychev     : AutoAux, RI-MP2 NMR, DLPNO-MP2 response, X2C  
  Van Anh Tran           : RI-MP2 g-tensors                              
  Willem Van den Heuvel  : Paramagnetic NMR                              
  Zikuan Wang            : NOTCH, Electric field optimization            
  Frank Wennmohs         : Technical directorship and infrastructure     
  Hang Xu                : AUTO-CI-Response properties                   
                                                                         
[FACCTs GmbH]                                                            
  Markus Bursch, Miquel Garcia-Rates, Christoph Riplinger, Bernardo de Souza, Georgi L. Stoychev 
                                                                 
  APM, Basis sets (HGBS, AHGBS, def-TZVP (Ac-Lr), def2-XVPD (La-Lu)), CI-OPT, improved COSX, DLPNO-Multilevel,           
  DOCKER, DRACO, updates on ESD, GOAT, IRC, LR-CPCM, MBIS, meta-GGA TD-DFT gradient, ML-optimized integration grids, 
  MM, NACMEs, nearIR, NEB, NEB-TS, NL-DFT gradient (VV10), 2- and 3-layer-ONIOM, interface openCOSMO-RS, QMMM,   
  Crystal-QMMM, SF, symmetry and pop. for TD-DFT, r2SCAN hybrids, SOLVATOR                                   
                                                                         
[Other institutions]                                                     
  V. Asgeirsson          : NEB                                           
  Christoph Bannwarth    : sTDA-DFT, sTD-DFT, PBEh-3c, B97-3c, D3        
  Sebastian Ehlert       : rSCAN, r2SCAN, r2SCAN-3c, D4, dhf basis sets  
  Marvin Friede          : D4 for Fr, Ra, Ac-Lr                          
  Lars Goerigk           : TD-DFT with DH, B97 family of functionals     
  Stefan Grimme          : VdW corrections, initial TS optimization, DFT functionals, gCP, sTDA/sTD-DF 
  Waldemar Hujo          : DFT-NL                                        
  H. Jonsson             : NEB                                           
  Holger Kruse           : gCP                                           
  Marcel Mueller         : wB97X-3c, vDZP basis set                      
  Hagen Neugebauer       : wr2SCAN                                       
  Tobias Risthaus        : range-separated hybrid DFT                    
  Lukas Wittmann         : regularized MP2, r2SCAN double-hybrids, wr2SCAN        
                                                                         
We gratefully acknowledge several colleagues who have allowed us to      
interface, adapt or use parts of their codes:                            
  Ed Valeev, F. Pavosevic, A. Kumar             : LibInt (2-el integral package), F12 methods 
  Garnet Chan, S. Sharma, J. Yang, R. Olivares  : DMRG                   
  Ulf Ekstrom                                   : XCFun DFT Library      
  Mihaly Kallay                                 : mrcc  (arbitrary order and MRCC methods)
  Frank Weinhold                                : gennbo (NPA and NBO analysis)           
  Simon Mueller                                 : openCOSMO-RS                            
  Christopher J. Cramer and Donald G. Truhlar   : smd solvation model                     
  S Lehtola, MJT Oliveira, MAL Marques          : LibXC Library                           
  Liviu Ungur et al                             : ANISO software                          


 Your calculation uses the libint2 library for the computation of 2-el integrals
 For citations please refer to: http://libint.valeyev.net

 Your ORCA version has been built with support for libXC version: 6.2.2
 For citations please refer to: https://libxc.gitlab.io

 This ORCA versions uses:
   CBLAS   interface :  Fast vector & matrix operations
   LAPACKE interface :  Fast linear algebra routines
   SCALAPACK package :  Parallel linear algebra routines
   Shared memory     :  Shared parallel matrices
   BLAS/LAPACK       :  OpenBLAS 0.3.27  USE64BITINT DYNAMIC_ARCH NO_AFFINITY SapphireRapids SINGLE_THREADED
        Core in use  :  SapphireRapids
   Copyright (c) 2011-2014, The OpenBLAS Project




***************************************
The coordinates will be read from file: /scratch/kx58/rs2200/dhdft/inputs/compas3D-xyzs/hc_c24h14_0pent_4.xyz
***************************************


Your calculation utilizes the atom-pairwise dispersion correction
based on EEQ partial charges (D4)


================================================================================

----- Orbital basis set information -----
Your calculation utilizes the basis: def2-QZVPP
   F. Weigend and R. Ahlrichs, Phys. Chem. Chem. Phys. 7, 3297 (2005).

================================================================================
                                        WARNINGS
                       Please study these warnings very carefully!
================================================================================


WARNING: No MP2 level density has been requested!
         To calculate MP2 level properties use
         %mp2 Density relaxed end
         or
         %mp2 Density unrelaxed end
         Otherwise for double-hybrid DFT only the energy is correct!

================================================================================
                                       INPUT FILE
================================================================================
NAME = compas3D_hc_c24h14_0pent_4_qz_nori.inp
|  1> ! RKS revDSD-PBEP86-D4/2021 defgrid3  NORI NOPOP NoFrozencore NoUseSym
|  2> 
|  3> %basis
|  4> Basis "def2-QZVPP"
|  5> 
|  6> 
|  7> end
|  8> 
|  9> %method
| 10> ScalHFX 0.69
| 11> ScalDFX 0.31
| 12> ScalDFC 0.4038
| 13> ScalLDAC 0.4038
| 14> 
| 15> D4S6 0.4612
| 16> D4S8 0.0
| 17> D4A1 0.44
| 18> D4A2 3.60
| 19> end
| 20> 
| 21> %mp2
| 22> PS 0.5979
| 23> PT 0.0571
| 24> MaxCore 45000
| 25> Q1Opt 1
| 26> 
| 27> end
| 28> 
| 29> %pal
| 30> nprocs 10
| 31> end
| 32> 
| 33> *XYZFILE 0 1 /scratch/kx58/rs2200/dhdft/inputs/compas3D-xyzs/hc_c24h14_0pent_4.xyz
| 34> 
| 35>                          ****END OF INPUT****
================================================================================

                       ****************************
                       * Single Point Calculation *
                       ****************************

---------------------------------
CARTESIAN COORDINATES (ANGSTROEM)
---------------------------------
  C      1.427532   -0.757866    0.000186
  C      0.664354   -1.954597    0.001142
  C     -0.776528   -1.912668    0.002571
  C     -1.468673   -0.673580    0.003087
  C     -0.700119    0.583248    0.000881
  C      0.733444    0.541718   -0.000659
  C      2.818277   -0.855504   -0.000038
  C      3.464270   -2.091488    0.000033
  C      2.727959   -3.260274    0.000429
  C      1.325873   -3.211827    0.001118
  C      0.547407   -4.420389    0.001994
  C     -0.803768   -4.380978    0.003313
  C     -1.510314   -3.129085    0.003898
  C     -2.912814   -3.095824    0.005953
  C     -3.579797   -1.886128    0.006885
  C     -2.862777   -0.689988    0.005500
  C     -1.330813    1.815946   -0.000163
  C     -0.623410    3.031814   -0.002556
  C      0.798803    2.990728   -0.004188
  C      1.434594    1.735868   -0.003273
  C     -1.277215    4.296840   -0.003545
  C     -0.552158    5.457268   -0.005997
  C      0.867709    5.416283   -0.007651
  C      1.524585    4.215930   -0.006788
  H      3.430554    0.044574   -0.000184
  H      4.555356   -2.128738   -0.000209
  H      3.226121   -4.232158    0.000365
  H      1.077363   -5.375360    0.001668
  H     -1.388600   -5.303371    0.004075
  H     -3.466311   -4.037266    0.006941
  H     -4.671185   -1.859563    0.008727
  H     -3.421421    0.244321    0.006417
  H     -2.418396    1.875212    0.000686
  H      2.523807    1.731862   -0.004936
  H     -2.369450    4.323862   -0.002285
  H     -1.062271    6.422657   -0.006702
  H      1.432475    6.350731   -0.009632
  H      2.616539    4.179793   -0.008063

----------------------------
CARTESIAN COORDINATES (A.U.)
----------------------------
  NO LB      ZA    FRAG     MASS         X           Y           Z
   0 C     6.0000    0    12.011    2.697644   -1.432159    0.000352
   1 C     6.0000    0    12.011    1.255447   -3.693653    0.002159
   2 C     6.0000    0    12.011   -1.467425   -3.614419    0.004859
   3 C     6.0000    0    12.011   -2.775389   -1.272882    0.005833
   4 C     6.0000    0    12.011   -1.323033    1.102178    0.001664
   5 C     6.0000    0    12.011    1.386008    1.023698   -0.001246
   6 C     6.0000    0    12.011    5.325771   -1.616668   -0.000071
   7 C     6.0000    0    12.011    6.546522   -3.952340    0.000062
   8 C     6.0000    0    12.011    5.155096   -6.161024    0.000810
   9 C     6.0000    0    12.011    2.505538   -6.069473    0.002113
  10 C     6.0000    0    12.011    1.034449   -8.353324    0.003768
  11 C     6.0000    0    12.011   -1.518902   -8.278848    0.006260
  12 C     6.0000    0    12.011   -2.854080   -5.913114    0.007367
  13 C     6.0000    0    12.011   -5.504421   -5.850260    0.011249
  14 C     6.0000    0    12.011   -6.764835   -3.564266    0.013010
  15 C     6.0000    0    12.011   -5.409865   -1.303888    0.010394
  16 C     6.0000    0    12.011   -2.514872    3.431640   -0.000308
  17 C     6.0000    0    12.011   -1.178075    5.729297   -0.004829
  18 C     6.0000    0    12.011    1.509519    5.651657   -0.007914
  19 C     6.0000    0    12.011    2.710990    3.280315   -0.006185
  20 C     6.0000    0    12.011   -2.413586    8.119851   -0.006700
  21 C     6.0000    0    12.011   -1.043428   10.312742   -0.011333
  22 C     6.0000    0    12.011    1.639733   10.235292   -0.014459
  23 C     6.0000    0    12.011    2.881048    7.966952   -0.012827
  24 H     1.0000    0     1.008    6.482808    0.084233   -0.000348
  25 H     1.0000    0     1.008    8.608376   -4.022732   -0.000394
  26 H     1.0000    0     1.008    6.096484   -7.997619    0.000689
  27 H     1.0000    0     1.008    2.035920  -10.157958    0.003152
  28 H     1.0000    0     1.008   -2.624075  -10.021919    0.007701
  29 H     1.0000    0     1.008   -6.550378   -7.629328    0.013117
  30 H     1.0000    0     1.008   -8.827261   -3.514065    0.016492
  31 H     1.0000    0     1.008   -6.465549    0.461699    0.012127
  32 H     1.0000    0     1.008   -4.570105    3.543638    0.001297
  33 H     1.0000    0     1.008    4.769303    3.272744   -0.009328
  34 H     1.0000    0     1.008   -4.477612    8.170915   -0.004319
  35 H     1.0000    0     1.008   -2.007401   12.137062   -0.012665
  36 H     1.0000    0     1.008    2.706985   12.001143   -0.018202
  37 H     1.0000    0     1.008    4.944542    7.898663   -0.015236

--------------------------------
INTERNAL COORDINATES (ANGSTROEM)
--------------------------------
 C      0   0   0     0.000000000000     0.00000000     0.00000000
 C      1   0   0     1.419368791399     0.00000000     0.00000000
 C      2   1   0     1.441492551986   120.85962233     0.00000000
 C      3   2   1     1.419296878614   120.85419748     0.00000000
 C      4   3   2     1.473192550102   119.36663258     0.05645803
 C      5   4   3     1.434164794633   119.78657614   359.94960089
 C      1   2   3     1.394168059378   118.51050965   179.94642537
 C      7   1   2     1.394619979952   121.60995097     0.02986058
 C      8   7   1     1.381380736184   120.19586576     0.00000000
 C      9   8   7     1.402922820679   120.23110563     0.00000000
 C     10   9   8     1.437579057801   120.80767026   180.02125448
 C     11  10   9     1.351750307703   121.11594160   179.96773660
 C      3   2   1     1.420603692156   119.43309580   180.01840265
 C     13   3   2     1.402895444527   119.74137964   179.96895390
 C     14  13   3     1.381387424494   120.22932255     0.00000000
 C      4   3   2     1.394203181138   118.51306108   180.04784813
 C      5   4   3     1.384673782419   121.45813028   179.92968665
 C     17   5   4     1.406683482343   122.71281618   180.01391408
 C     18  17   5     1.422807620493   118.53655248     0.00000000
 C      6   5   4     1.384779039395   118.76016388   179.97403710
 C     18  17   5     1.423991641278   122.47749518   180.00356542
 C     21  18  17     1.368322522198   120.67084905   180.00557745
 C     22  21  18     1.420459899141   120.34452776     0.00000000
 C     23  22  21     1.368332921710   120.34235438     0.00000000
 H      7   1   2     1.088588594786   120.20955796   180.03537873
 H      8   7   1     1.091722011938   119.54935628   179.99639952
 H      9   8   7     1.092118761763   120.65147406   179.99257440
 H     11  10   9     1.092164243584   118.18550131   359.97383710
 H     12  11  10     1.092171791506   120.70553891   180.00626700
 H     14  13   3     1.092095606836   119.09382308   179.99894029
 H     15  14  13     1.091713471450   120.26514555   180.01481990
 H     16   4   3     1.088584703814   120.20186192   179.97169193
 H     17   5   4     1.089196356467   120.21510114     0.00000000
 H     20   6   5     1.089221371194   120.20885377   180.02743427
 H     21  18  17     1.092570812869   118.74844264     0.00000000
 H     22  21  18     1.091874553076   120.15010097   180.00227742
 H     23  22  21     1.091859430591   119.49474639   179.99824144
 H     24  23  22     1.092552887252   120.58439458   179.99943253

---------------------------
INTERNAL COORDINATES (A.U.)
---------------------------
 C      0   0   0     0.000000000000     0.00000000     0.00000000
 C      1   0   0     2.682218298779     0.00000000     0.00000000
 C      2   1   0     2.724026147340   120.85962233     0.00000000
 C      3   2   1     2.682082403309   120.85419748     0.00000000
 C      4   3   2     2.783930462226   119.36663258     0.05645803
 C      5   4   3     2.710178692767   119.78657614   359.94960089
 C      1   2   3     2.634595816884   118.51050965   179.94642537
 C      7   1   2     2.635449823004   121.60995097     0.02986058
 C      8   7   1     2.610431278061   120.19586576     0.00000000
 C      9   8   7     2.651139918112   120.23110563     0.00000000
 C     10   9   8     2.716630715104   120.80767026   180.02125448
 C     11  10   9     2.554437883002   121.11594160   179.96773660
 C      3   2   1     2.684551923012   119.43309580   180.01840265
 C     13   3   2     2.651088184681   119.74137964   179.96895390
 C     14  13   3     2.610443917137   120.22932255     0.00000000
 C      4   3   2     2.634662187394   118.51306108   180.04784813
 C      5   4   3     2.616654233592   121.45813028   179.92968665
 C     17   5   4     2.658246538739   122.71281618   180.01391408
 C     18  17   5     2.688716743988   118.53655248     0.00000000
 C      6   5   4     2.616853140451   118.76016388   179.97403710
 C     18  17   5     2.690954219009   122.47749518   180.00356542
 C     21  18  17     2.585754829830   120.67084905   180.00557745
 C     22  21  18     2.684280193593   120.34452776     0.00000000
 C     23  22  21     2.585774482061   120.34235438     0.00000000
 H      7   1   2     2.057134316656   120.20955796   180.03537873
 H      8   7   1     2.063055616936   119.54935628   179.99639952
 H      9   8   7     2.063805365450   120.65147406   179.99257440
 H     11  10   9     2.063891313634   118.18550131   359.97383710
 H     12  11  10     2.063905577140   120.70553891   180.00626700
 H     14  13   3     2.063761608978   119.09382308   179.99894029
 H     15  14  13     2.063039477752   120.26514555   180.01481990
 H     16   4   3     2.057126963784   120.20186192   179.97169193
 H     17   5   4     2.058282819788   120.21510114     0.00000000
 H     20   6   5     2.058330090771   120.20885377   180.02743427
 H     21  18  17     2.064659618238   118.74844264     0.00000000
 H     22  21  18     2.063343877912   120.15010097   180.00227742
 H     23  22  21     2.063315300557   119.49474639   179.99824144
 H     24  23  22     2.064625743732   120.58439458   179.99943253

---------------------
BASIS SET INFORMATION
---------------------
There are 2 groups of distinct atoms

 Group   1 Type C   : 15s8p3d2f1g contracted to 7s4p3d2f1g pattern {8211111/5111/111/11/1}
 Group   2 Type H   : 7s3p2d1f contracted to 4s3p2d1f pattern {4111/111/11/1}

Atom   0C    basis set group =>   1
Atom   1C    basis set group =>   1
Atom   2C    basis set group =>   1
Atom   3C    basis set group =>   1
Atom   4C    basis set group =>   1
Atom   5C    basis set group =>   1
Atom   6C    basis set group =>   1
Atom   7C    basis set group =>   1
Atom   8C    basis set group =>   1
Atom   9C    basis set group =>   1
Atom  10C    basis set group =>   1
Atom  11C    basis set group =>   1
Atom  12C    basis set group =>   1
Atom  13C    basis set group =>   1
Atom  14C    basis set group =>   1
Atom  15C    basis set group =>   1
Atom  16C    basis set group =>   1
Atom  17C    basis set group =>   1
Atom  18C    basis set group =>   1
Atom  19C    basis set group =>   1
Atom  20C    basis set group =>   1
Atom  21C    basis set group =>   1
Atom  22C    basis set group =>   1
Atom  23C    basis set group =>   1
Atom  24H    basis set group =>   2
Atom  25H    basis set group =>   2
Atom  26H    basis set group =>   2
Atom  27H    basis set group =>   2
Atom  28H    basis set group =>   2
Atom  29H    basis set group =>   2
Atom  30H    basis set group =>   2
Atom  31H    basis set group =>   2
Atom  32H    basis set group =>   2
Atom  33H    basis set group =>   2
Atom  34H    basis set group =>   2
Atom  35H    basis set group =>   2
Atom  36H    basis set group =>   2
Atom  37H    basis set group =>   2


           ************************************************************
           *        Program running with 10 parallel MPI-processes    *
           *              working on a common directory               *
           ************************************************************
------------------------------------------------------------------------------
                             ORCA STARTUP CALCULATIONS
------------------------------------------------------------------------------
------------------------------------------------------------------------------
                   ___                                                        
                  /   \      - P O W E R E D   B Y -                         
                 /     \                                                     
                 |  |  |   _    _      __       _____    __    __             
                 |  |  |  | |  | |    /  \     |  _  \  |  |  /  |          
                  \  \/   | |  | |   /    \    | | | |  |  | /  /          
                 / \  \   | |__| |  /  /\  \   | |_| |  |  |/  /          
                |  |  |   |  __  | /  /__\  \  |    /   |      \           
                |  |  |   | |  | | |   __   |  |    \   |  |\   \          
                \     /   | |  | | |  |  |  |  | |\  \  |  | \   \       
                 \___/    |_|  |_| |__|  |__|  |_| \__\ |__|  \__/        
                                                                              
                      - O R C A' S   B I G   F R I E N D -                    
                                      &                                       
                       - I N T E G R A L  F E E D E R -                       
                                                                              
 v1 FN, 2020, v2 2021, v3 2022-2024                                           
------------------------------------------------------------------------------


----------------------
SHARK INTEGRAL PACKAGE
----------------------

Number of atoms                             ...     38
Number of basis functions                   ...   1788
Number of shells                            ...    548
Maximum angular momentum                    ...      4
Integral batch strategy                     ... SHARK/LIBINT Hybrid
RI-J (if used) integral strategy            ... SPLIT-RIJ (Revised 2003 algorithm where possible)
Printlevel                                  ...      1
Contraction scheme used                     ... SEGMENTED contraction
Prescreening option                         ... SCHWARTZ
   Thresh                                   ... 1.000e-10
   Tcut                                     ... 1.000e-11
   Tpresel                                  ... 1.000e-11 
Coulomb Range Separation                    ... NOT USED
Exchange Range Separation                   ... NOT USED
Multipole approximations                    ... NOT USED
Finite Nucleus Model                        ... NOT USED
CABS basis                                  ... NOT available
Auxiliary Coulomb fitting basis             ... NOT available
Auxiliary J/K fitting basis                 ... NOT available
Auxiliary Correlation fitting basis         ... NOT available
Auxiliary 'external' fitting basis          ... NOT available

Checking pre-screening integrals            ... done (  0.0 sec) Dimension = 548
Check shell pair data                       ... done (  0.0 sec)
Shell pair information
Shell pair cut-off parameter TPreSel        ...   1.0e-11
Total number of shell pairs                 ...    150426
Shell pairs after pre-screening             ...     89138
Total number of primitive shell pairs       ...    386901
Primitive shell pairs kept                  ...    158401
          la=0 lb=0:  13568 shell pairs
          la=1 lb=0:  20033 shell pairs
          la=1 lb=1:   6983 shell pairs
          la=2 lb=0:  12199 shell pairs
          la=2 lb=1:   9073 shell pairs
          la=2 lb=2:   2903 shell pairs
          la=3 lb=0:   7334 shell pairs
          la=3 lb=1:   5397 shell pairs
          la=3 lb=2:   3309 shell pairs
          la=3 lb=3:   1002 shell pairs
          la=4 lb=0:   2900 shell pairs
          la=4 lb=1:   2152 shell pairs
          la=4 lb=2:   1326 shell pairs
          la=4 lb=3:    786 shell pairs
          la=4 lb=4:    173 shell pairs

Calculating one electron integrals          ... done (  0.2 sec)
Calculating Nuclear repulsion               ... done (  0.0 sec) ENN=   1788.493745095677 Eh

Diagonalization of the overlap matrix:
Smallest eigenvalue                        ... 6.752e-08
Time for diagonalization                   ...    0.278 sec
Threshold for overlap eigenvalues          ... 1.000e-07
Number of eigenvalues below threshold      ... 1
Smallest eigenvalue above threshold        ... 1.217e-06

IMPORTANT:
Smallest eigenvalue of S below the DiffSThresh (1.000e-06) while
Thresh>1e-12 and/or TCut>1e-13! In order to avoid SCF convergence issues,
Thresh will be set to at least 1e-12 and TCut to at least 1e-13.
This can be turned off by adding %SCF DiffSThresh -1 END to the input.

Time for construction of square roots      ...    0.302 sec
Total time needed                          ...    0.601 sec

-------------------
DFT GRID GENERATION
-------------------

General Integration Accuracy     IntAcc      ... 4.959
Radial Grid Type                 RadialGrid  ... OptM3 with GC (2021)
Angular Grid (max. ang.)         AngularGrid ... 6 (Lebedev-590)
Angular grid pruning method      GridPruning ... 4 (adaptive)
Weight generation scheme         WeightScheme... mBecke (2022)
Basis function cutoff            BFCut       ... 1.0000e-10
Integration weight cutoff        WCut        ... 1.0000e-14
Partially contracted basis set               ... off
Rotationally invariant grid construction     ... off
Angular grids for H and He will be reduced by one unit
Diffuse basis detected: some atoms will have their outermost
                        angular grid increased by 1.

Total number of grid points                  ...   467896
Total number of batches                      ...     7329
Average number of points per batch           ...       63
Average number of grid points per atom       ...    12313
Initializing property integral containers    ... done (  0.0 sec)

SHARK setup successfully completed in   7.0 seconds

Maximum memory used throughout the entire STARTUP-calculation: 221.6 MB


           ************************************************************
           *        Program running with 10 parallel MPI-processes    *
           *              working on a common directory               *
           ************************************************************
-------------------------------------------------------------------------------
                                 ORCA GUESS
                   Start orbitals & Density for SCF / CASSCF
-------------------------------------------------------------------------------

------------
SCF SETTINGS
------------
Hamiltonian:
 Density Functional     Method          .... DFT(GTOs)
 Exchange Functional    Exchange        .... PBE
   PBE kappa parameter   XKappa         ....  0.804000
   PBE mue parameter    XMuePBE         ....  0.219520
 Correlation Functional Correlation     .... P86
 LDA part of GGA corr.  LDAOpt          .... VWN-5
 Gradients option       PostSCFGGA      .... off
 Hybrid DFT is turned on
   Fraction HF Exchange ScalHFX         ....  0.690000
   Scaling of DF-GGA-X  ScalDFX         ....  0.310000
   Scaling of DF-GGA-C  ScalDFC         ....  0.403800
   Scaling of DF-LDA-C  ScalLDAC        ....  0.403800
   Perturbative correction              ....  1.000000


General Settings:
 Integral files         IntName         .... compas3D_hc_c24h14_0pent_4_qz_nori
 Hartree-Fock type      HFTyp           .... RHF
 Total Charge           Charge          ....    0
 Multiplicity           Mult            ....    1
 Number of Electrons    NEL             ....  158
 Basis Dimension        Dim             .... 1788
 Nuclear Repulsion      ENuc            ....   1788.4937450957 Eh

Convergence Acceleration:
 AO-DIIS                CNVDIIS         .... on
   Start iteration      DIISMaxIt       ....    12
   Startup error        DIISStart       ....  0.200000
   # of expansion vecs  DIISMaxEq       ....     5
   Bias factor          DIISBfac        ....   1.050
   Max. coefficient     DIISMaxC        ....  10.000
 MO-DIIS                CNVKDIIS        .... off
 Trust-Rad. Augm. Hess. CNVTRAH         .... auto
   Auto Start mean grad. ratio tolernc. ....  1.125000
   Auto Start start iteration           ....    50
   Auto Start num. interpolation iter.  ....    10
   Max. Number of Micro iterations      ....    24
   Max. Number of Macro iterations      .... Maxiter - #DIIS iter
   Number of Davidson start vectors     ....     2
   Converg. threshold    (grad. norm)   ....   5.000e-05
   Grad. Scal. Fac. for Micro threshold ....   0.100
   Minimum threshold for Micro iter.    ....   1.000e-02
   NR start threshold (gradient norm)   ....   1.000e-04
   Initial trust radius                 ....   0.400
   Minimum AH scaling param. (alpha)    ....   1.000
   Maximum AH scaling param. (alpha)    .... 1000.000
   Quad. conv. algorithm                .... NR
   White noise on init. David. guess    .... on
   Maximum white noise                  ....   0.010
   Pseudo random numbers                .... off
   Inactive MOs                         .... canonical
   Orbital update algorithm             .... Taylor
   Preconditioner                       .... Diag
   Full preconditioner red. dimension   ....   250
 SOSCF                  CNVSOSCF        .... on
   Start iteration      SOSCFMaxIt      ....   150
   Startup grad/error   SOSCFStart      ....  0.003300
   Hessian update       SOSCFHessUp     .... L-BFGS
 Level Shifting         CNVShift        .... on
   Level shift para.    LevelShift      ....    0.2500
   Turn off err/grad.   ShiftErr        ....    0.0010
 Zerner damping         CNVZerner       .... off
 Static damping         CNVDamp         .... on
   Fraction old density DampFac         ....    0.7000
   Max. Damping (<1)    DampMax         ....    0.9800
   Min. Damping (>=0)   DampMin         ....    0.0000
   Turn off err/grad.   DampErr         ....    0.1000

SCF Procedure:
 Maximum # iterations   MaxIter         ....   125
 SCF integral mode      SCFMode         .... Direct
   Integral package                     .... SHARK and LIBINT hybrid scheme
 Reset frequency        DirectResetFreq ....    20
 Integral Threshold     Thresh          ....  1.000e-12 Eh
 Primitive CutOff       TCut            ....  1.000e-13 Eh

Convergence Tolerance:
 Convergence Check Mode ConvCheckMode   .... Total+1el-Energy
 Convergence forced     ConvForced      .... 0
 Energy Change          TolE            ....  1.000e-06 Eh
 1-El. energy change                    ....  1.000e-03 Eh
 Orbital Gradient       TolG            ....  5.000e-05
 Orbital Rotation angle TolX            ....  5.000e-05
 DIIS Error             TolErr          ....  1.000e-06

------------------------------
INITIAL GUESS: MODEL POTENTIAL
------------------------------
Loading Hartree-Fock densities                     ... done
Calculating cut-offs                               ... done
Initializing the effective Hamiltonian             ... done
Setting up the integral package (SHARK)            ... done
Starting the Coulomb interaction                   ... done (   0.7 sec)
Making the grid                                    ... done (   0.2 sec)
Mapping shells                                     ... done
Starting the XC term evaluation                    ... done (   0.5 sec)
  promolecular density results
     # of electrons  =    157.981265888
     EX              =   -126.957379684
     EC              =      0.208539077
     EX+EC           =   -126.748840607
Transforming the Hamiltonian                       ... done (   0.2 sec)
Diagonalizing the Hamiltonian                      ... done (   0.3 sec)
Back transforming the eigenvectors                 ... done (   0.1 sec)
Now organizing SCF variables                       ... done
                      ------------------
                      INITIAL GUESS DONE (   2.2 sec)
                      ------------------
             **** ENERGY FILE WAS UPDATED (compas3D_hc_c24h14_0pent_4_qz_nori.en.tmp) ****
Finished Guess after   4.9 sec
Maximum memory used throughout the entire GUESS-calculation: 224.4 MB


           ************************************************************
           *        Program running with 10 parallel MPI-processes    *
           *              working on a common directory               *
           ************************************************************

-------------------------------------------------------------------------------------------
                                      ORCA LEAN-SCF
                              memory conserving SCF solver
-------------------------------------------------------------------------------------------

----------------------------------------D-I-I-S--------------------------------------------
Iteration    Energy (Eh)           Delta-E    RMSDP     MaxDP     DIISErr   Damp  Time(sec)
-------------------------------------------------------------------------------------------
               ***  Starting incremental Fock matrix formation  ***
    1    -919.0637142437137754     0.00e+00  2.50e-04  2.27e-02  1.51e-01  0.700 386.4
    2    -919.2442816941600086    -1.81e-01  1.98e-04  1.89e-02  9.34e-02  0.700 336.2
                               ***Turning on AO-DIIS***
    3    -919.3514508962805394    -1.07e-01  1.33e-04  1.40e-02  5.62e-02  0.700 328.8
    4    -919.4184727185454449    -6.70e-02  3.17e-04  3.34e-02  3.88e-02  0.000 319.0
    5    -919.5651823764139863    -1.47e-01  2.40e-05  1.39e-03  4.19e-03  0.000 339.2
                              *** Initializing SOSCF ***
---------------------------------------S-O-S-C-F--------------------------------------
Iteration    Energy (Eh)           Delta-E    RMSDP     MaxDP     MaxGrad    Time(sec)
--------------------------------------------------------------------------------------
    6    -919.5654670739265839    -2.85e-04  9.18e-06  4.48e-04  1.20e-03   279.1
               *** Restarting incremental Fock matrix formation ***
    7    -919.5655306723626836    -6.36e-05  1.09e-05  7.86e-04  6.39e-04   382.6
    8    -919.5655546280747785    -2.40e-05  7.68e-06  4.65e-04  3.58e-04   248.7
    9    -919.5655625215856617    -7.89e-06  5.24e-06  4.22e-04  1.83e-04   240.0
   10    -919.5655643729267013    -1.85e-06  1.48e-06  8.29e-05  2.82e-05   222.5
   11    -919.5655643753023014    -2.38e-09  1.08e-06  9.37e-05  3.34e-05   191.2
                 **** Energy Check signals convergence ****

               *****************************************************
               *                     SUCCESS                       *
               *           SCF CONVERGED AFTER  11 CYCLES          *
               *****************************************************

             **** ENERGY FILE WAS UPDATED (compas3D_hc_c24h14_0pent_4_qz_nori.en.tmp) ****

----------------
TOTAL SCF ENERGY
----------------

Total Energy       :       -919.56556437530230 Eh          -25022.65113 eV

Components:
Nuclear Repulsion  :       1788.49374509567701 Eh           48667.38901 eV
Electronic Energy  :      -2708.05930947097931 Eh          -73690.04014 eV
One Electron Energy:      -4797.55272191576660 Eh         -130548.04650 eV
Two Electron Energy:       2089.49341244478728 Eh           56858.00636 eV

Virial components:
Potential Energy   :      -1836.36831204890791 Eh          -49970.12220 eV
Kinetic Energy     :        916.80274767360561 Eh           24947.47107 eV
Virial Ratio       :          2.00301353449115

DFT components:
N(Alpha)           :       79.000007681378 electrons
N(Beta)            :       79.000007681378 electrons
N(Total)           :      158.000015362757 electrons
E(X)               :      -40.013033798602 Eh       
E(C)               :       -2.350441169869 Eh       
E(XC)              :      -42.363474968471 Eh       

---------------
SCF CONVERGENCE
---------------

  Last Energy change         ...    2.3756e-09  Tolerance :   1.0000e-06
  Last MAX-Density change    ...    9.3738e-05  Tolerance :   1.0000e-05
  Last RMS-Density change    ...    1.0801e-06  Tolerance :   1.0000e-06
  Last DIIS Error            ...    1.2024e-03  Tolerance :   1.0000e-06
  Last Orbital Gradient      ...    3.3416e-05  Tolerance :   5.0000e-05
  Last Orbital Rotation      ...    8.3496e-05  Tolerance :   5.0000e-05


----------------
ORBITAL ENERGIES
----------------

  NO   OCC          E(Eh)            E(eV) 
   0   2.0000     -10.840361      -294.9812 
   1   2.0000     -10.839714      -294.9636 
   2   2.0000     -10.839213      -294.9500 
   3   2.0000     -10.839057      -294.9457 
   4   2.0000     -10.837079      -294.8919 
   5   2.0000     -10.836395      -294.8733 
   6   2.0000     -10.834925      -294.8333 
   7   2.0000     -10.834877      -294.8320 
   8   2.0000     -10.834112      -294.8112 
   9   2.0000     -10.833276      -294.7884 
  10   2.0000     -10.827561      -294.6329 
  11   2.0000     -10.827330      -294.6266 
  12   2.0000     -10.827130      -294.6212 
  13   2.0000     -10.826413      -294.6017 
  14   2.0000     -10.826161      -294.5948 
  15   2.0000     -10.826159      -294.5948 
  16   2.0000     -10.826063      -294.5922 
  17   2.0000     -10.826029      -294.5912 
  18   2.0000     -10.825861      -294.5867 
  19   2.0000     -10.825813      -294.5854 
  20   2.0000     -10.824910      -294.5608 
  21   2.0000     -10.824904      -294.5606 
  22   2.0000     -10.824477      -294.5490 
  23   2.0000     -10.824474      -294.5489 
  24   2.0000      -1.092476       -29.7278 
  25   2.0000      -1.067173       -29.0392 
  26   2.0000      -1.042442       -28.3663 
  27   2.0000      -1.024107       -27.8674 
  28   2.0000      -0.985333       -26.8123 
  29   2.0000      -0.963554       -26.2196 
  30   2.0000      -0.962594       -26.1935 
  31   2.0000      -0.934855       -25.4387 
  32   2.0000      -0.913589       -24.8600 
  33   2.0000      -0.903370       -24.5819 
  34   2.0000      -0.877279       -23.8720 
  35   2.0000      -0.873116       -23.7587 
  36   2.0000      -0.797451       -21.6997 
  37   2.0000      -0.775180       -21.0937 
  38   2.0000      -0.774561       -21.0769 
  39   2.0000      -0.769859       -20.9489 
  40   2.0000      -0.741015       -20.1640 
  41   2.0000      -0.723069       -19.6757 
  42   2.0000      -0.703211       -19.1353 
  43   2.0000      -0.670083       -18.2339 
  44   2.0000      -0.656708       -17.8699 
  45   2.0000      -0.633917       -17.2497 
  46   2.0000      -0.619693       -16.8627 
  47   2.0000      -0.614541       -16.7225 
  48   2.0000      -0.605319       -16.4716 
  49   2.0000      -0.588845       -16.0233 
  50   2.0000      -0.570121       -15.5138 
  51   2.0000      -0.561123       -15.2689 
  52   2.0000      -0.550824       -14.9887 
  53   2.0000      -0.544179       -14.8079 
  54   2.0000      -0.533483       -14.5168 
  55   2.0000      -0.526110       -14.3162 
  56   2.0000      -0.524335       -14.2679 
  57   2.0000      -0.520896       -14.1743 
  58   2.0000      -0.517735       -14.0883 
  59   2.0000      -0.510289       -13.8857 
  60   2.0000      -0.490546       -13.3484 
  61   2.0000      -0.485884       -13.2216 
  62   2.0000      -0.475359       -12.9352 
  63   2.0000      -0.468614       -12.7516 
  64   2.0000      -0.461097       -12.5471 
  65   2.0000      -0.455933       -12.4066 
  66   2.0000      -0.450543       -12.2599 
  67   2.0000      -0.434099       -11.8124 
  68   2.0000      -0.433114       -11.7856 
  69   2.0000      -0.412056       -11.2126 
  70   2.0000      -0.410943       -11.1823 
  71   2.0000      -0.384291       -10.4571 
  72   2.0000      -0.368974       -10.0403 
  73   2.0000      -0.356908        -9.7120 
  74   2.0000      -0.331972        -9.0334 
  75   2.0000      -0.302334        -8.2269 
  76   2.0000      -0.289375        -7.8743 
  77   2.0000      -0.249676        -6.7940 
  78   2.0000      -0.249271        -6.7830 
  79   0.0000       0.003098         0.0843 
  80   0.0000       0.009024         0.2456 
  81   0.0000       0.039529         1.0756 
  82   0.0000       0.051822         1.4102 
  83   0.0000       0.073340         1.9957 
  84   0.0000       0.073725         2.0062 
  85   0.0000       0.076367         2.0780 
  86   0.0000       0.080039         2.1780 
  87   0.0000       0.091087         2.4786 
  88   0.0000       0.091239         2.4827 
  89   0.0000       0.106055         2.8859 
*Only the first 10 virtual orbitals were printed.
-------
TIMINGS
-------

Total SCF time: 0 days 0 hours 54 min 36 sec 

Total time                  ....    3276.960 sec
Sum of individual times     ....    3276.876 sec  (100.0%)

SCF preparation             ....       2.228 sec  (  0.1%)
Fock matrix formation       ....    3261.311 sec  ( 99.5%)
  Startup                   ....       0.615 sec  (  0.0% of F)
  Coulomb+Exchange Fock     ....    3218.604 sec  ( 98.7% of F)
  XC integration            ....      40.030 sec  (  1.2% of F)
    XC Preparation          ....       0.000 sec  (  0.0% of XC)
    Basis function eval.    ....       6.677 sec  ( 16.7% of XC)
    Density eval.           ....      14.016 sec  ( 35.0% of XC)
    XC-Functional eval.     ....       0.233 sec  (  0.6% of XC)
    XC-Potential eval.      ....      17.145 sec  ( 42.8% of XC)
Diagonalization             ....       0.000 sec  (  0.0%)
Density matrix formation    ....       1.778 sec  (  0.1%)
Total Energy calculation    ....       0.491 sec  (  0.0%)
Population analysis         ....       0.000 sec  (  0.0%)
Orbital Transformation      ....       1.498 sec  (  0.0%)
Orbital Orthonormalization  ....       0.000 sec  (  0.0%)
DIIS solution               ....       6.449 sec  (  0.2%)
SOSCF solution              ....       2.926 sec  (  0.1%)
Finished LeanSCF after 3277.3 sec

Maximum memory used throughout the entire LEANSCF-calculation: 268.3 MB


           ************************************************************
           *        Program running with 10 parallel MPI-processes    *
           *              working on a common directory               *
           ************************************************************

------------------------------------------------------------------------------
                                ORCA  MP2 
------------------------------------------------------------------------------

MP2 will be done in the AO integral direct mode
The Q1-step will be done using symmetric double matrices
Dimension of the basis                    ... 1788
Memory devoted for MP2                    ... 45000 MB   
Memory needed for all in one shot         ... 174541 MB
Number of MOs that can be treated together...    1      
Scaling for aa/bb pairs                   ...   5.710e-02
Scaling for ab pairs                      ...   5.979e-01
Overall scaling of the MP2 energy         ...   1.000e+00
Total number of MOs              ...   79
Number of MOs treated per batch  ...    1 
Number of batches necessary      ...    8 
OPERATORS   0/  0 PASS  64
OPERATORS   0/  0 PASS  32
OPERATORS   0/  0 PASS  56
OPERATORS   0/  0 PASS  72
OPERATORS   0/  0 PASS  48
OPERATORS   0/  0 PASS  16
OPERATORS   0/  0 PASS  40
OPERATORS   0/  0 PASS  24
OPERATORS   0/  0 PASS   8
OPERATORS   0/  0 PASS   0
