
                                 *****************
                                 * O   R   C   A *
                                 *****************

                                            #,                                       
                                            ###                                      
                                            ####                                     
                                            #####                                    
                                            ######                                   
                                           ########,                                 
                                     ,,################,,,,,                         
                               ,,#################################,,                 
                          ,,##########################################,,             
                       ,#########################################, ''#####,          
                    ,#############################################,,   '####,        
                  ,##################################################,,,,####,       
                ,###########''''           ''''###############################       
              ,#####''   ,,,,##########,,,,          '''####'''          '####       
            ,##' ,,,,###########################,,,                        '##       
           ' ,,###''''                  '''############,,,                           
         ,,##''                                '''############,,,,        ,,,,,,###''
      ,#''                                            '''#######################'''  
     '                                                          ''''####''''         
             ,#######,   #######,   ,#######,      ##                                
            ,#'     '#,  ##    ##  ,#'     '#,    #''#        ,####,   ,####,        
            ##       ##  ##   ,#'  ##            #'  '#       #'       #'  '#        
            ##       ##  #######   ##           ,######,      #####,   #    #        
            '#,     ,#'  ##    ##  '#,     ,#' ,#      #,     #,   #   #,  ,#        
             '#######'   ##     ##  '#######'  #'      '#     '####' # '####'        



                #########################################################
                #                        -***-                          #
                #          Department of theory and spectroscopy        #
                #                                                       #
                #                      Frank Neese                      #
                #                                                       #
                #     Directorship, Architecture, Infrastructure        #
                #                    SHARK, DRIVERS                     #
                #        Core code/Algorithms in most modules           #
                #                                                       #
                #        Max Planck Institute fuer Kohlenforschung      #
                #                Kaiser Wilhelm Platz 1                 #
                #                 D-45470 Muelheim/Ruhr                 #
                #                      Germany                          #
                #                                                       #
                #                  All rights reserved                  #
                #                        -***-                          #
                #########################################################


                         Program Version 6.0.1  -  RELEASE   -


 With contributions from (in alphabetic order):
[Max-Planck-Institut fuer Kohlenforschung]                               
  Daniel Aravena         : Magnetic Suceptibility                        
  Michael Atanasov       : Ab Initio Ligand Field Theory (pilot matlab implementation)
  Alexander A. Auer      : GIAO ZORA, VPT2 properties, NMR spectrum      
  Ute Becker             : All parallelization in ORCA, NUMFREQ, NUMCALC 
  Giovanni Bistoni       : ED, misc. LED, open-shell LED, HFLD           
  Martin Brehm           : Molecular dynamics                            
  Dmytro Bykov           : pre 5.0 version of the SCF Hessian            
  Marcos Casanova-Páez   : Triplet and SCS-CIS(D). UHF-(DLPNO)-IP/EA/STEOM-CCSD. UHF-CVS-IP/STEOM-CCSD   
  Vijay G. Chilkuri      : MRCI spin determinant printing, contributions to CSF-ICE 
  Pauline Colinet        : FMM embedding                                 
  Dipayan Datta          : RHF DLPNO-CCSD density                        
  Achintya Kumar Dutta   : EOM-CC, STEOM-CC                              
  Nicolas Foglia         : Exact transition moments, OPA infrastructure, MCD improvements    
  Dmitry Ganyushin       : Spin-Orbit,Spin-Spin,Magnetic field MRCI      
  Miquel Garcia-Rates    : C-PCM and meta-GGA Hessian, CCSD/C-PCM, Gaussian charge scheme 
  Tiago L. C. Gouveia    : GS-ROHF, GS-ROCIS                             
  Yang Guo               : DLPNO-NEVPT2, F12-NEVPT2, CIM, IAO-localization        
  Andreas Hansen         : Spin unrestricted coupled pair/coupled cluster methods 
  Ingolf Harden          : AUTO-CI MPn and infrastructure                
  Benjamin Helmich-Paris : MC-RPA, TRAH-(SCF,CASSCF), AVAS, COSX integrals, SCF dyn. polar. 
  Lee Huntington         : MR-EOM, pCC                                   
  Robert Izsak           : Overlap fitted RIJCOSX, COSX-SCS-MP3, EOM     
  Riya Kayal             : Wick's Theorem for AUTO-CI, AUTO-CI UHF-CCSDT 
  Emily Kempfer          : AUTO-CI, RHF CISDT and CCSDT                  
  Christian Kollmar      : KDIIS, OOCD, Brueckner-CCSD(T), CCSD density, CASPT2, CASPT2-K, improved NEVPT2 
  Axel Koslowski         : Symmetry handling                             
  Simone Kossmann        : meta-GGA functionals, TD-DFT gradient, OOMP2, (MP2 Hessian; deprecated post 5.0) 
  Lucas Lang             : DCDCAS                                        
  Marvin Lechner         : AUTO-CI (C++ implementation), FIC-MRCC        
  Spencer Leger          : CASSCF response                               
  Dagmar Lenk            : GEPOL surface, SMD, ORCA-2-JSON               
  Dimitrios Liakos       : Extrapolation schemes; Compound Job, initial MDCI parallelization 
  Dimitrios Manganas     : Further ROCIS development; embedding schemes. LFT, Crystal Embedding 
  Dimitrios Pantazis     : SARC Basis sets                               
  Anastasios Papadopoulos: AUTO-CI, single reference methods and gradients 
  Taras Petrenko         : pre 6.0 DFT Hessian and TD-DFT gradient, (ASA, deprecated), ECA, 1-Electron XAS/XES, NRVS 
  Peter Pinski           : DLPNO-MP2, DLPNO-MP2 Gradient                 
  Christoph Reimann      : Effective Core Potentials                     
  Marius Retegan         : Local ZFS, SOC                                
  Christoph Riplinger    : Optimizer, TS searches, QM/MM, DLPNO-CCSD(T), (RO)-DLPNO pert. Triples 
  Michael Roemelt        : Original ROCIS implementation                 
  Masaaki Saitow         : Open-shell DLPNO-CCSD energy and density      
  Barbara Sandhoefer     : DKH picture change effects                    
  Kantharuban Sivalingam : CASSCF convergence/infrastructure, NEVPT2 and variants, FIC-MRCI 
  Bernardo de Souza      : ESD, SOC TD-DFT                               
  Georgi L. Stoychev     : AutoAux, RI-MP2 NMR, DLPNO-MP2 response, X2C  
  Van Anh Tran           : RI-MP2 g-tensors                              
  Willem Van den Heuvel  : Paramagnetic NMR                              
  Zikuan Wang            : NOTCH, Electric field optimization            
  Frank Wennmohs         : Technical directorship and infrastructure     
  Hang Xu                : AUTO-CI-Response properties                   
                                                                         
[FACCTs GmbH]                                                            
  Markus Bursch, Miquel Garcia-Rates, Christoph Riplinger, Bernardo de Souza, Georgi L. Stoychev 
                                                                 
  APM, Basis sets (HGBS, AHGBS, def-TZVP (Ac-Lr), def2-XVPD (La-Lu)), CI-OPT, improved COSX, DLPNO-Multilevel,           
  DOCKER, DRACO, updates on ESD, GOAT, IRC, LR-CPCM, MBIS, meta-GGA TD-DFT gradient, ML-optimized integration grids, 
  MM, NACMEs, nearIR, NEB, NEB-TS, NL-DFT gradient (VV10), 2- and 3-layer-ONIOM, interface openCOSMO-RS, QMMM,   
  Crystal-QMMM, SF, symmetry and pop. for TD-DFT, r2SCAN hybrids, SOLVATOR                                   
                                                                         
[Other institutions]                                                     
  V. Asgeirsson          : NEB                                           
  Christoph Bannwarth    : sTDA-DFT, sTD-DFT, PBEh-3c, B97-3c, D3        
  Sebastian Ehlert       : rSCAN, r2SCAN, r2SCAN-3c, D4, dhf basis sets  
  Marvin Friede          : D4 for Fr, Ra, Ac-Lr                          
  Lars Goerigk           : TD-DFT with DH, B97 family of functionals     
  Stefan Grimme          : VdW corrections, initial TS optimization, DFT functionals, gCP, sTDA/sTD-DF 
  Waldemar Hujo          : DFT-NL                                        
  H. Jonsson             : NEB                                           
  Holger Kruse           : gCP                                           
  Marcel Mueller         : wB97X-3c, vDZP basis set                      
  Hagen Neugebauer       : wr2SCAN                                       
  Tobias Risthaus        : range-separated hybrid DFT                    
  Lukas Wittmann         : regularized MP2, r2SCAN double-hybrids, wr2SCAN        
                                                                         
We gratefully acknowledge several colleagues who have allowed us to      
interface, adapt or use parts of their codes:                            
  Ed Valeev, F. Pavosevic, A. Kumar             : LibInt (2-el integral package), F12 methods 
  Garnet Chan, S. Sharma, J. Yang, R. Olivares  : DMRG                   
  Ulf Ekstrom                                   : XCFun DFT Library      
  Mihaly Kallay                                 : mrcc  (arbitrary order and MRCC methods)
  Frank Weinhold                                : gennbo (NPA and NBO analysis)           
  Simon Mueller                                 : openCOSMO-RS                            
  Christopher J. Cramer and Donald G. Truhlar   : smd solvation model                     
  S Lehtola, MJT Oliveira, MAL Marques          : LibXC Library                           
  Liviu Ungur et al                             : ANISO software                          


 Your calculation uses the libint2 library for the computation of 2-el integrals
 For citations please refer to: http://libint.valeyev.net

 Your ORCA version has been built with support for libXC version: 6.2.2
 For citations please refer to: https://libxc.gitlab.io

 This ORCA versions uses:
   CBLAS   interface :  Fast vector & matrix operations
   LAPACKE interface :  Fast linear algebra routines
   SCALAPACK package :  Parallel linear algebra routines
   Shared memory     :  Shared parallel matrices
   BLAS/LAPACK       :  OpenBLAS 0.3.27  USE64BITINT DYNAMIC_ARCH NO_AFFINITY SapphireRapids SINGLE_THREADED
        Core in use  :  SapphireRapids
   Copyright (c) 2011-2014, The OpenBLAS Project


Warning! Weird basis set assignment to AuxJK basis!


***************************************
The coordinates will be read from file: /g/data/kx58/rs2200/dhdft/inputs/compas3x-xyzs/hc_c38h18_0pent_1.xyz
***************************************


Your calculation utilizes the atom-pairwise dispersion correction
based on EEQ partial charges (D4)


================================================================================

----- Orbital basis set information -----
Your calculation utilizes the basis: def2-QZVPP
   F. Weigend and R. Ahlrichs, Phys. Chem. Chem. Phys. 7, 3297 (2005).

----- AuxC basis set information -----
Your calculation utilizes the auxiliary basis: def2-QZVPP/C
  H-La, Hf-Rn : A. Hellweg, C. Hattig, S. Hofener and W. Klopper, Theor. Chem. Acc. 117, 587 (2007).
        Ce-Lu : J. Chmela and M. E. Harding, Mol. Phys. (2018).

----- AuxJK basis set information -----
Your calculation utilizes the auxiliary basis: def2-QZVPP/C
  H-La, Hf-Rn : A. Hellweg, C. Hattig, S. Hofener and W. Klopper, Theor. Chem. Acc. 117, 587 (2007).
        Ce-Lu : J. Chmela and M. E. Harding, Mol. Phys. (2018).

================================================================================
                                        WARNINGS
                       Please study these warnings very carefully!
================================================================================


WARNING: No MP2 level density has been requested!
         To calculate MP2 level properties use
         %mp2 Density relaxed end
         or
         %mp2 Density unrelaxed end
         Otherwise for double-hybrid DFT only the energy is correct!

================================================================================
                                       INPUT FILE
================================================================================
NAME = compas3x_hc_c38h18_0pent_1_qz_riri.inp
|  1> ! RKS revDSD-PBEP86-D4/2021 defgrid3  RIJK NOPOP NoFrozencore NoUseSym
|  2> 
|  3> %basis
|  4> Basis "def2-QZVPP"
|  5> AuxJK "def2-QZVPP/C"
|  6> AuxC "def2-QZVPP/C"
|  7> end
|  8> 
|  9> %method
| 10> ScalHFX 0.69
| 11> ScalDFX 0.31
| 12> ScalDFC 0.4038
| 13> ScalLDAC 0.4038
| 14> 
| 15> D4S6 0.4612
| 16> D4S8 0.0
| 17> D4A1 0.44
| 18> D4A2 3.60
| 19> end
| 20> 
| 21> %mp2
| 22> PS 0.5979
| 23> PT 0.0571
| 24> 
| 25> end
| 26> 
| 27> %pal
| 28> nprocs 104
| 29> end
| 30> 
| 31> *XYZFILE 0 1 /g/data/kx58/rs2200/dhdft/inputs/compas3x-xyzs/hc_c38h18_0pent_1.xyz
| 32> 
| 33>                          ****END OF INPUT****
================================================================================

                       ****************************
                       * Single Point Calculation *
                       ****************************

---------------------------------
CARTESIAN COORDINATES (ANGSTROEM)
---------------------------------
  C     -0.977053   -0.470048   -0.280057
  C     -0.737317    0.925872   -0.260553
  C      0.573727    1.405616   -0.080356
  C      1.635710    0.498435    0.199643
  C      1.348387   -0.860120    0.408393
  C      0.086251   -1.367661    0.012176
  C     -2.269226   -0.976288   -0.570810
  C     -3.369843   -0.052116   -0.760322
  C     -3.119072    1.342764   -0.701380
  C     -1.807106    1.844848   -0.477773
  C     -1.568431    3.231549   -0.477064
  C     -0.225290    3.726221   -0.320497
  C      0.834511    2.800341   -0.150686
  C      2.167540    3.272355   -0.044895
  C      3.224546    2.322001    0.050174
  C      2.970041    1.000799    0.173730
  C     -0.109834   -2.766034   -0.115654
  C     -1.375654   -3.223948   -0.454621
  C     -2.430675   -2.355076   -0.651230
  C     -4.193112    2.248974   -0.881648
  C     -3.928429    3.637820   -0.838846
  C     -2.667139    4.106033   -0.653658
  C      0.085946    5.091097   -0.338959
  C      1.386464    5.538790   -0.221789
  C      2.426497    4.640186   -0.085916
  C      2.293191   -1.775350    1.014523
  C      2.155610   -3.165148    0.762247
  C      1.002767   -3.671139    0.110568
  C     -4.673271   -0.483410   -0.983022
  C     -5.721175    0.412611   -1.148947
  C     -5.490029    1.764819   -1.101716
  C      3.168212   -4.058417    1.196301
  C      3.075699   -5.419694    0.847159
  C      2.005786   -5.876291    0.123747
  C      0.963928   -5.016394   -0.220993
  C      3.291286   -1.356744    1.883286
  C      4.249168   -2.249260    2.364094
  C      4.227781   -3.565040    1.984023
  H      4.241306    2.685894    0.008028
  H      3.785916    0.294336    0.191317
  H     -1.562413   -4.282397   -0.545745
  H     -3.394214   -2.779565   -0.882550
  H     -4.754398    4.323014   -0.966456
  H     -2.509920    5.172219   -0.639913
  H     -0.694219    5.826632   -0.448216
  H      1.589406    6.599806   -0.243089
  H      3.446168    4.988624   -0.007370
  H     -4.899668   -1.536406   -1.026841
  H     -6.719766    0.035984   -1.316921
  H     -6.297903    2.469698   -1.234519
  H      3.859084   -6.093894    1.161700
  H      1.946515   -6.916895   -0.161005
  H      0.120379   -5.423336   -0.756125
  H      3.317542   -0.331249    2.218650
  H      5.020714   -1.886331    3.027733
  H      4.997081   -4.249086    2.311650

----------------------------
CARTESIAN COORDINATES (A.U.)
----------------------------
  NO LB      ZA    FRAG     MASS         X           Y           Z
   0 C     6.0000    0    12.011   -1.846363   -0.888261   -0.529230
   1 C     6.0000    0    12.011   -1.393327    1.749645   -0.492375
   2 C     6.0000    0    12.011    1.084187    2.656229   -0.151852
   3 C     6.0000    0    12.011    3.091043    0.941905    0.377270
   4 C     6.0000    0    12.011    2.548082   -1.625392    0.771751
   5 C     6.0000    0    12.011    0.162990   -2.584505    0.023010
   6 C     6.0000    0    12.011   -4.288215   -1.844918   -1.078675
   7 C     6.0000    0    12.011   -6.368080   -0.098484   -1.436801
   8 C     6.0000    0    12.011   -5.894192    2.537455   -1.325416
   9 C     6.0000    0    12.011   -3.414936    3.486258   -0.902860
  10 C     6.0000    0    12.011   -2.963905    6.106743   -0.901521
  11 C     6.0000    0    12.011   -0.425737    7.041537   -0.605651
  12 C     6.0000    0    12.011    1.576998    5.291878   -0.284755
  13 C     6.0000    0    12.011    4.096056    6.183855   -0.084839
  14 C     6.0000    0    12.011    6.093508    4.387947    0.094816
  15 C     6.0000    0    12.011    5.612565    1.891236    0.328302
  16 C     6.0000    0    12.011   -0.207557   -5.227046   -0.218554
  17 C     6.0000    0    12.011   -2.599609   -6.092379   -0.859110
  18 C     6.0000    0    12.011   -4.593310   -4.450448   -1.230647
  19 C     6.0000    0    12.011   -7.923834    4.249944   -1.666074
  20 C     6.0000    0    12.011   -7.423656    6.874483   -1.585189
  21 C     6.0000    0    12.011   -5.040162    7.759277   -1.235235
  22 C     6.0000    0    12.011    0.162415    9.620779   -0.640539
  23 C     6.0000    0    12.011    2.620037   10.466796   -0.419120
  24 C     6.0000    0    12.011    4.585414    8.768680   -0.162358
  25 C     6.0000    0    12.011    4.333502   -3.354925    1.917170
  26 C     6.0000    0    12.011    4.073513   -5.981264    1.440438
  27 C     6.0000    0    12.011    1.894954   -6.937447    0.208943
  28 C     6.0000    0    12.011   -8.831203   -0.913513   -1.857643
  29 C     6.0000    0    12.011  -10.811453    0.779722   -2.171194
  30 C     6.0000    0    12.011  -10.374650    3.335024   -2.081942
  31 C     6.0000    0    12.011    5.987053   -7.669297    2.260681
  32 C     6.0000    0    12.011    5.812229  -10.241738    1.600899
  33 C     6.0000    0    12.011    3.790385  -11.104581    0.233848
  34 C     6.0000    0    12.011    1.821559   -9.479611   -0.417617
  35 C     6.0000    0    12.011    6.219630   -2.563874    3.558894
  36 C     6.0000    0    12.011    8.029764   -4.250486    4.467491
  37 C     6.0000    0    12.011    7.989348   -6.736948    3.749261
  38 H     1.0000    0     1.008    8.014907    5.075603    0.015171
  39 H     1.0000    0     1.008    7.154344    0.556215    0.361537
  40 H     1.0000    0     1.008   -2.952532   -8.092558   -1.031309
  41 H     1.0000    0     1.008   -6.414136   -5.252616   -1.667778
  42 H     1.0000    0     1.008   -8.984510    8.169313   -1.826336
  43 H     1.0000    0     1.008   -4.743062    9.774077   -1.209260
  44 H     1.0000    0     1.008   -1.311884   11.010738   -0.847006
  45 H     1.0000    0     1.008    3.003542   12.471826   -0.459372
  46 H     1.0000    0     1.008    6.512315    9.427132   -0.013926
  47 H     1.0000    0     1.008   -9.259030   -2.903386   -1.940448
  48 H     1.0000    0     1.008  -12.698518    0.068000   -2.488619
  49 H     1.0000    0     1.008  -11.901312    4.667053   -2.332903
  50 H     1.0000    0     1.008    7.292612  -11.515791    2.195295
  51 H     1.0000    0     1.008    3.678380  -13.071038   -0.304255
  52 H     1.0000    0     1.008    0.227483  -10.248619   -1.428868
  53 H     1.0000    0     1.008    6.269246   -0.625970    4.192642
  54 H     1.0000    0     1.008    9.487775   -3.564648    5.721587
  55 H     1.0000    0     1.008    9.443115   -8.029609    4.368385

--------------------------------
INTERNAL COORDINATES (ANGSTROEM)
--------------------------------
 C      0   0   0     0.000000000000     0.00000000     0.00000000
 C      1   0   0     1.416490854249     0.00000000     0.00000000
 C      2   1   0     1.407643576828   119.68679984     0.00000000
 C      3   2   1     1.424494494831   120.16365317   354.43092124
 C      4   3   2     1.404209291608   119.52582884   354.54247584
 C      5   4   3     1.416888277710   119.16050949    15.82227444
 C      1   2   3     1.417930604174   120.59074281   185.28238329
 C      7   1   2     1.449609540039   119.41306753   355.84648801
 C      8   7   1     1.418466835291   119.16132328     2.40334553
 C      9   8   7     1.422442689960   121.11085577     0.83535417
 C     10   9   8     1.407091313386   120.29066878   177.38802961
 C     11  10   9     1.439875005686   119.79218707   183.29098580
 C     12  11  10     1.417486863819   119.08170459   359.13752825
 C     13  12  11     1.418080883113   119.62635046   177.68385542
 C     14  13  12     1.424595315711   118.71140682   183.46460997
 C     15  14  13     1.351152681220   121.24250208   353.39357790
 C      6   5   4     1.417827928645   120.11246872   163.59452642
 C     17   6   5     1.388122444258   118.26072132   177.49149681
 C     18  17   6     1.380820296565   121.59623042   359.29392003
 C      9   8   7     1.416783833471   119.31953692   180.21109381
 C     20   9   8     1.414490053097   118.83729160   180.84397611
 C     21  20   9     1.358076270214   121.09274245     1.21331348
 C     12  11  10     1.400034111743   122.74232258   178.61719463
 C     23  12  11     1.380399686224   121.63452749   181.72871139
 C     24  23  12     1.381165996304   120.44943446     0.20524199
 C      5   4   3     1.448341445978   122.69093393   195.73915771
 C     26   5   4     1.419193811177   118.76350508   202.62849535
 C     27  26   5     1.417660227529   120.66878742   350.09415910
 C      8   7   1     1.390876118017   122.32735266   183.20520572
 C     29   8   7     1.388699941278   121.74937479   179.30512570
 C     30  29   8     1.372634073451   120.29417870     0.27310059
 C     27  26   5     1.418342315874   119.54733808   171.62596264
 C     32  27  26     1.408379845140   119.07618548   185.08785040
 C     33  32  27     1.369861643562   120.29076028   358.55724498
 C     28  27  26     1.386056577477   118.63068394   174.34921609
 C     26   5   4     1.387867210474   122.71783849    25.73563239
 C     36  26   5     1.394740370574   121.11010378   185.18942458
 C     37  36  26     1.369739587035   120.55257358     0.19234642
 H     15  14  13     1.080738423402   118.08784489   172.62513397
 H     16  15  14     1.079374784469   119.94148757   176.75169494
 H     18  17   6     1.078655091933   120.14670172   180.89982433
 H     19  18  17     1.078010945404   117.75531000   181.85894602
 H     21  20   9     1.080740314960   118.41971905   180.65466317
 H     22  21  20     1.077803273612   118.57175371   179.25629607
 H     23  12  11     1.077778388040   120.38005802     1.61576324
 H     24  23  12     1.080460338159   119.58874722   179.82189749
 H     25  24  23     1.080420758519   120.53063881   179.17926760
 H     29   8   7     1.077949285777   120.41364998   359.62040997
 H     30  29   8     1.080392707262   119.41356384   180.18793752
 H     31  30  29     1.080348464174   120.83660737   179.69638519
 H     33  32  27     1.080358058482   118.90600417   178.73866804
 H     34  33  32     1.080487769165   120.20066303   178.72181434
 H     35  28  27     1.078675671667   120.44700067   182.72158893
 H     36  26   5     1.079258287844   119.90742757     6.90130392
 H     37  36  26     1.080471061956   119.15729792   179.11685609
 H     38  37  36     1.080315564587   120.86241050   176.75101461

---------------------------
INTERNAL COORDINATES (A.U.)
---------------------------
 C      0   0   0     0.000000000000     0.00000000     0.00000000
 C      1   0   0     2.676779785736     0.00000000     0.00000000
 C      2   1   0     2.660060854378   119.68679984     0.00000000
 C      3   2   1     2.691904474509   120.16365317   354.43092124
 C      4   3   2     2.653570995846   119.52582884   354.54247584
 C      5   4   3     2.677530807236   119.16050949    15.82227444
 C      1   2   3     2.679500518794   120.59074281   185.28238329
 C      7   1   2     2.739365031794   119.41306753   355.84648801
 C      8   7   1     2.680513848750   119.16132328     2.40334553
 C      9   8   7     2.688027125222   121.11085577     0.83535417
 C     10   9   8     2.659017227719   120.29066878   177.38802961
 C     11  10   9     2.720969427825   119.79218707   183.29098580
 C     12  11  10     2.678661971049   119.08170459   359.13752825
 C     13  12  11     2.679784504833   119.62635046   177.68385542
 C     14  13  12     2.692094998361   118.71140682   183.46460997
 C     15  14  13     2.553308532620   121.24250208   353.39357790
 C      6   5   4     2.679306490164   120.11246872   163.59452642
 C     17   6   5     2.623171259997   118.26072132   177.49149681
 C     18  17   6     2.609372200668   121.59623042   359.29392003
 C      9   8   7     2.677333436228   119.31953692   180.21109381
 C     20   9   8     2.672998819508   118.83729160   180.84397611
 C     21  20   9     2.566392219683   121.09274245     1.21331348
 C     12  11  10     2.645681049342   122.74232258   178.61719463
 C     23  12  11     2.608577362315   121.63452749   181.72871139
 C     24  23  12     2.610025478498   120.44943446     0.20524199
 C      5   4   3     2.736968681306   122.69093393   195.73915771
 C     26   5   4     2.681887634081   118.76350508   202.62849535
 C     27  26   5     2.678989580982   120.66878742   350.09415910
 C      8   7   1     2.628374949264   122.32735266   183.20520572
 C     29   8   7     2.624262571208   121.74937479   179.30512570
 C     30  29   8     2.593902480911   120.29417870     0.27310059
 C     27  26   5     2.680278541153   119.54733808   171.62596264
 C     32  27  26     2.661452199849   119.07618548   185.08785040
 C     33  32  27     2.588663347695   120.29076028   358.55724498
 C     28  27  26     2.619267337551   118.63068394   174.34921609
 C     26   5   4     2.622688938045   122.71783849    25.73563239
 C     36  26   5     2.635677328309   121.11010378   185.18942458
 C     37  36  26     2.588432694287   120.55257358     0.19234642
 H     15  14  13     2.042299642637   118.08784489   172.62513397
 H     16  15  14     2.039722738506   119.94148757   176.75169494
 H     18  17   6     2.038362716713   120.14670172   180.89982433
 H     19  18  17     2.037145456183   117.75531000   181.85894602
 H     21  20   9     2.042303217162   118.41971905   180.65466317
 H     22  21  20     2.036753013370   118.57175371   179.25629607
 H     23  12  11     2.036705986455   120.38005802     1.61576324
 H     24  23  12     2.041774137684   119.58874722   179.82189749
 H     25  24  23     2.041699343005   120.53063881   179.17926760
 H     29   8   7     2.037028936375   120.41364998   359.62040997
 H     30  29   8     2.041646333812   119.41356384   180.18793752
 H     31  30  29     2.041562726490   120.83660737   179.69638519
 H     33  32  27     2.041580857106   118.90600417   178.73866804
 H     34  33  32     2.041825974773   120.20066303   178.72181434
 H     35  28  27     2.038401606773   120.44700067   182.72158893
 H     36  26   5     2.039502591789   119.90742757     6.90130392
 H     37  36  26     2.041794402724   119.15729792   179.11685609
 H     38  37  36     2.041500555282   120.86241050   176.75101461

---------------------
BASIS SET INFORMATION
---------------------
There are 2 groups of distinct atoms

 Group   1 Type C   : 15s8p3d2f1g contracted to 7s4p3d2f1g pattern {8211111/5111/111/11/1}
 Group   2 Type H   : 7s3p2d1f contracted to 4s3p2d1f pattern {4111/111/11/1}

Atom   0C    basis set group =>   1
Atom   1C    basis set group =>   1
Atom   2C    basis set group =>   1
Atom   3C    basis set group =>   1
Atom   4C    basis set group =>   1
Atom   5C    basis set group =>   1
Atom   6C    basis set group =>   1
Atom   7C    basis set group =>   1
Atom   8C    basis set group =>   1
Atom   9C    basis set group =>   1
Atom  10C    basis set group =>   1
Atom  11C    basis set group =>   1
Atom  12C    basis set group =>   1
Atom  13C    basis set group =>   1
Atom  14C    basis set group =>   1
Atom  15C    basis set group =>   1
Atom  16C    basis set group =>   1
Atom  17C    basis set group =>   1
Atom  18C    basis set group =>   1
Atom  19C    basis set group =>   1
Atom  20C    basis set group =>   1
Atom  21C    basis set group =>   1
Atom  22C    basis set group =>   1
Atom  23C    basis set group =>   1
Atom  24C    basis set group =>   1
Atom  25C    basis set group =>   1
Atom  26C    basis set group =>   1
Atom  27C    basis set group =>   1
Atom  28C    basis set group =>   1
Atom  29C    basis set group =>   1
Atom  30C    basis set group =>   1
Atom  31C    basis set group =>   1
Atom  32C    basis set group =>   1
Atom  33C    basis set group =>   1
Atom  34C    basis set group =>   1
Atom  35C    basis set group =>   1
Atom  36C    basis set group =>   1
Atom  37C    basis set group =>   1
Atom  38H    basis set group =>   2
Atom  39H    basis set group =>   2
Atom  40H    basis set group =>   2
Atom  41H    basis set group =>   2
Atom  42H    basis set group =>   2
Atom  43H    basis set group =>   2
Atom  44H    basis set group =>   2
Atom  45H    basis set group =>   2
Atom  46H    basis set group =>   2
Atom  47H    basis set group =>   2
Atom  48H    basis set group =>   2
Atom  49H    basis set group =>   2
Atom  50H    basis set group =>   2
Atom  51H    basis set group =>   2
Atom  52H    basis set group =>   2
Atom  53H    basis set group =>   2
Atom  54H    basis set group =>   2
Atom  55H    basis set group =>   2
---------------------------------
AUXILIARY/C BASIS SET INFORMATION
---------------------------------
There are 2 groups of distinct atoms

 Group   1 Type C   : 9s8p7d5f3g1h contracted to 9s8p7d5f3g1h pattern {111111111/11111111/1111111/11111/111/1}
 Group   2 Type H   : 6s4p3d2f1g contracted to 6s4p3d2f1g pattern {111111/1111/111/11/1}

Atom   0C    basis set group =>   1
Atom   1C    basis set group =>   1
Atom   2C    basis set group =>   1
Atom   3C    basis set group =>   1
Atom   4C    basis set group =>   1
Atom   5C    basis set group =>   1
Atom   6C    basis set group =>   1
Atom   7C    basis set group =>   1
Atom   8C    basis set group =>   1
Atom   9C    basis set group =>   1
Atom  10C    basis set group =>   1
Atom  11C    basis set group =>   1
Atom  12C    basis set group =>   1
Atom  13C    basis set group =>   1
Atom  14C    basis set group =>   1
Atom  15C    basis set group =>   1
Atom  16C    basis set group =>   1
Atom  17C    basis set group =>   1
Atom  18C    basis set group =>   1
Atom  19C    basis set group =>   1
Atom  20C    basis set group =>   1
Atom  21C    basis set group =>   1
Atom  22C    basis set group =>   1
Atom  23C    basis set group =>   1
Atom  24C    basis set group =>   1
Atom  25C    basis set group =>   1
Atom  26C    basis set group =>   1
Atom  27C    basis set group =>   1
Atom  28C    basis set group =>   1
Atom  29C    basis set group =>   1
Atom  30C    basis set group =>   1
Atom  31C    basis set group =>   1
Atom  32C    basis set group =>   1
Atom  33C    basis set group =>   1
Atom  34C    basis set group =>   1
Atom  35C    basis set group =>   1
Atom  36C    basis set group =>   1
Atom  37C    basis set group =>   1
Atom  38H    basis set group =>   2
Atom  39H    basis set group =>   2
Atom  40H    basis set group =>   2
Atom  41H    basis set group =>   2
Atom  42H    basis set group =>   2
Atom  43H    basis set group =>   2
Atom  44H    basis set group =>   2
Atom  45H    basis set group =>   2
Atom  46H    basis set group =>   2
Atom  47H    basis set group =>   2
Atom  48H    basis set group =>   2
Atom  49H    basis set group =>   2
Atom  50H    basis set group =>   2
Atom  51H    basis set group =>   2
Atom  52H    basis set group =>   2
Atom  53H    basis set group =>   2
Atom  54H    basis set group =>   2
Atom  55H    basis set group =>   2
----------------------------------
AUXILIARY/JK BASIS SET INFORMATION
----------------------------------
There are 2 groups of distinct atoms

 Group   1 Type C   : 9s8p7d5f3g1h contracted to 9s8p7d5f3g1h pattern {111111111/11111111/1111111/11111/111/1}
 Group   2 Type H   : 6s4p3d2f1g contracted to 6s4p3d2f1g pattern {111111/1111/111/11/1}

Atom   0C    basis set group =>   1
Atom   1C    basis set group =>   1
Atom   2C    basis set group =>   1
Atom   3C    basis set group =>   1
Atom   4C    basis set group =>   1
Atom   5C    basis set group =>   1
Atom   6C    basis set group =>   1
Atom   7C    basis set group =>   1
Atom   8C    basis set group =>   1
Atom   9C    basis set group =>   1
Atom  10C    basis set group =>   1
Atom  11C    basis set group =>   1
Atom  12C    basis set group =>   1
Atom  13C    basis set group =>   1
Atom  14C    basis set group =>   1
Atom  15C    basis set group =>   1
Atom  16C    basis set group =>   1
Atom  17C    basis set group =>   1
Atom  18C    basis set group =>   1
Atom  19C    basis set group =>   1
Atom  20C    basis set group =>   1
Atom  21C    basis set group =>   1
Atom  22C    basis set group =>   1
Atom  23C    basis set group =>   1
Atom  24C    basis set group =>   1
Atom  25C    basis set group =>   1
Atom  26C    basis set group =>   1
Atom  27C    basis set group =>   1
Atom  28C    basis set group =>   1
Atom  29C    basis set group =>   1
Atom  30C    basis set group =>   1
Atom  31C    basis set group =>   1
Atom  32C    basis set group =>   1
Atom  33C    basis set group =>   1
Atom  34C    basis set group =>   1
Atom  35C    basis set group =>   1
Atom  36C    basis set group =>   1
Atom  37C    basis set group =>   1
Atom  38H    basis set group =>   2
Atom  39H    basis set group =>   2
Atom  40H    basis set group =>   2
Atom  41H    basis set group =>   2
Atom  42H    basis set group =>   2
Atom  43H    basis set group =>   2
Atom  44H    basis set group =>   2
Atom  45H    basis set group =>   2
Atom  46H    basis set group =>   2
Atom  47H    basis set group =>   2
Atom  48H    basis set group =>   2
Atom  49H    basis set group =>   2
Atom  50H    basis set group =>   2
Atom  51H    basis set group =>   2
Atom  52H    basis set group =>   2
Atom  53H    basis set group =>   2
Atom  54H    basis set group =>   2
Atom  55H    basis set group =>   2


           ************************************************************
           *        Program running with 104 parallel MPI-processes   *
           *              working on a common directory               *
           ************************************************************
------------------------------------------------------------------------------
                             ORCA STARTUP CALCULATIONS
                           -- RI-GTO INTEGRALS CHOSEN --
------------------------------------------------------------------------------
------------------------------------------------------------------------------
                   ___                                                        
                  /   \      - P O W E R E D   B Y -                         
                 /     \                                                     
                 |  |  |   _    _      __       _____    __    __             
                 |  |  |  | |  | |    /  \     |  _  \  |  |  /  |          
                  \  \/   | |  | |   /    \    | | | |  |  | /  /          
                 / \  \   | |__| |  /  /\  \   | |_| |  |  |/  /          
                |  |  |   |  __  | /  /__\  \  |    /   |      \           
                |  |  |   | |  | | |   __   |  |    \   |  |\   \          
                \     /   | |  | | |  |  |  |  | |\  \  |  | \   \       
                 \___/    |_|  |_| |__|  |__|  |_| \__\ |__|  \__/        
                                                                              
                      - O R C A' S   B I G   F R I E N D -                    
                                      &                                       
                       - I N T E G R A L  F E E D E R -                       
                                                                              
 v1 FN, 2020, v2 2021, v3 2022-2024                                           
------------------------------------------------------------------------------


----------------------
SHARK INTEGRAL PACKAGE
----------------------

Number of atoms                             ...     56
Number of basis functions                   ...   2706
Number of shells                            ...    826
Maximum angular momentum                    ...      4
Integral batch strategy                     ... SHARK/LIBINT Hybrid
RI-J (if used) integral strategy            ... SPLIT-RIJ (Revised 2003 algorithm where possible)
Printlevel                                  ...      1
Contraction scheme used                     ... SEGMENTED contraction
Prescreening option                         ... SCHWARTZ
   Thresh                                   ... 1.000e-10
   Tcut                                     ... 1.000e-11
   Tpresel                                  ... 1.000e-11 
Coulomb Range Separation                    ... NOT USED
Exchange Range Separation                   ... NOT USED
Multipole approximations                    ... NOT USED
Finite Nucleus Model                        ... NOT USED
CABS basis                                  ... NOT available
Auxiliary Coulomb fitting basis             ... NOT available
Auxiliary J/K fitting basis                 ... AVAILABLE
   # of basis functions in Aux-JK           ...   6366
   # of shells in Aux-JK                    ...   1542
   Maximum angular momentum in Aux-JK       ...      5
Auxiliary Correlation fitting basis         ... AVAILABLE
   # of basis functions in Aux-C            ...   6366
   # of shells in Aux-C                     ...   1542
   Maximum angular momentum in Aux-C        ...      5
Auxiliary 'external' fitting basis          ... NOT available

Checking pre-screening integrals            ... done (  0.0 sec) Dimension = 826
Check shell pair data                       ... done (  0.0 sec)
Shell pair information
Shell pair cut-off parameter TPreSel        ...   1.0e-11
Total number of shell pairs                 ...    341551
Shell pairs after pre-screening             ...    170120
Total number of primitive shell pairs       ...    894706
Primitive shell pairs kept                  ...    295913
          la=0 lb=0:  25221 shell pairs
          la=1 lb=0:  39164 shell pairs
          la=1 lb=1:  14005 shell pairs
          la=2 lb=0:  22583 shell pairs
          la=2 lb=1:  17716 shell pairs
          la=2 lb=2:   5390 shell pairs
          la=3 lb=0:  13433 shell pairs
          la=3 lb=1:  10610 shell pairs
          la=3 lb=2:   6101 shell pairs
          la=3 lb=3:   1829 shell pairs
          la=4 lb=0:   5443 shell pairs
          la=4 lb=1:   4351 shell pairs
          la=4 lb=2:   2505 shell pairs
          la=4 lb=3:   1446 shell pairs
          la=4 lb=4:    323 shell pairs

Calculating one electron integrals          ... done (  1.0 sec)
Calculating RI/JK V-Matrix + Cholesky decomp... done (  2.2 sec)
Calculating RI/C V-Matrix + Cholesky decomp.... done (  2.4 sec)
Calculating Nuclear repulsion               ... done (  0.0 sec) ENN=   3730.517890142751 Eh

Diagonalization of the overlap matrix:
Smallest eigenvalue                        ... 5.178e-08
Time for diagonalization                   ...    1.124 sec
Threshold for overlap eigenvalues          ... 1.000e-07
Number of eigenvalues below threshold      ... 2
Smallest eigenvalue above threshold        ... 2.415e-07

IMPORTANT:
Smallest eigenvalue of S below the DiffSThresh (1.000e-06) while
Thresh>1e-12 and/or TCut>1e-13! In order to avoid SCF convergence issues,
Thresh will be set to at least 1e-12 and TCut to at least 1e-13.
This can be turned off by adding %SCF DiffSThresh -1 END to the input.

Time for construction of square roots      ...    0.847 sec
Total time needed                          ...    2.067 sec

-------------------
DFT GRID GENERATION
-------------------

General Integration Accuracy     IntAcc      ... 4.959
Radial Grid Type                 RadialGrid  ... OptM3 with GC (2021)
Angular Grid (max. ang.)         AngularGrid ... 6 (Lebedev-590)
Angular grid pruning method      GridPruning ... 4 (adaptive)
Weight generation scheme         WeightScheme... mBecke (2022)
Basis function cutoff            BFCut       ... 1.0000e-10
Integration weight cutoff        WCut        ... 1.0000e-14
Partially contracted basis set               ... off
Rotationally invariant grid construction     ... off
Angular grids for H and He will be reduced by one unit
Diffuse basis detected: some atoms will have their outermost
                        angular grid increased by 1.

Total number of grid points                  ...   700132
Total number of batches                      ...    10967
Average number of points per batch           ...       63
Average number of grid points per atom       ...    12502
Initializing property integral containers    ... done (  0.1 sec)

SHARK setup successfully completed in  18.8 seconds

Maximum memory used throughout the entire STARTUP-calculation: 343.8 MB


           ************************************************************
           *        Program running with 104 parallel MPI-processes   *
           *              working on a common directory               *
           ************************************************************
-------------------------------------------------------------------------------
                                 ORCA GUESS
                   Start orbitals & Density for SCF / CASSCF
-------------------------------------------------------------------------------

------------
SCF SETTINGS
------------
Hamiltonian:
 Density Functional     Method          .... DFT(GTOs)
 Exchange Functional    Exchange        .... PBE
   PBE kappa parameter   XKappa         ....  0.804000
   PBE mue parameter    XMuePBE         ....  0.219520
 Correlation Functional Correlation     .... P86
 LDA part of GGA corr.  LDAOpt          .... VWN-5
 Gradients option       PostSCFGGA      .... off
 Hybrid DFT is turned on
   Fraction HF Exchange ScalHFX         ....  0.690000
   Scaling of DF-GGA-X  ScalDFX         ....  0.310000
   Scaling of DF-GGA-C  ScalDFC         ....  0.403800
   Scaling of DF-LDA-C  ScalLDAC        ....  0.403800
   Perturbative correction              ....  1.000000
 RI-approximation to the Coulomb term is turned on
   Number of AuxJK basis functions      .... 6366
   RI-JK (J+K treated both via RI)      .... on


General Settings:
 Integral files         IntName         .... compas3x_hc_c38h18_0pent_1_qz_riri
 Hartree-Fock type      HFTyp           .... RHF
 Total Charge           Charge          ....    0
 Multiplicity           Mult            ....    1
 Number of Electrons    NEL             ....  246
 Basis Dimension        Dim             .... 2706
 Nuclear Repulsion      ENuc            ....   3730.5178901428 Eh

Convergence Acceleration:
 AO-DIIS                CNVDIIS         .... on
   Start iteration      DIISMaxIt       ....    12
   Startup error        DIISStart       ....  0.200000
   # of expansion vecs  DIISMaxEq       ....     5
   Bias factor          DIISBfac        ....   1.050
   Max. coefficient     DIISMaxC        ....  10.000
 MO-DIIS                CNVKDIIS        .... off
 Trust-Rad. Augm. Hess. CNVTRAH         .... auto
   Auto Start mean grad. ratio tolernc. ....  1.125000
   Auto Start start iteration           ....    50
   Auto Start num. interpolation iter.  ....    10
   Max. Number of Micro iterations      ....    24
   Max. Number of Macro iterations      .... Maxiter - #DIIS iter
   Number of Davidson start vectors     ....     2
   Converg. threshold    (grad. norm)   ....   5.000e-05
   Grad. Scal. Fac. for Micro threshold ....   0.100
   Minimum threshold for Micro iter.    ....   1.000e-02
   NR start threshold (gradient norm)   ....   1.000e-04
   Initial trust radius                 ....   0.400
   Minimum AH scaling param. (alpha)    ....   1.000
   Maximum AH scaling param. (alpha)    .... 1000.000
   Quad. conv. algorithm                .... NR
   White noise on init. David. guess    .... on
   Maximum white noise                  ....   0.010
   Pseudo random numbers                .... off
   Inactive MOs                         .... canonical
   Orbital update algorithm             .... Taylor
   Preconditioner                       .... Diag
   Full preconditioner red. dimension   ....   250
 SOSCF                  CNVSOSCF        .... on
   Start iteration      SOSCFMaxIt      ....   150
   Startup grad/error   SOSCFStart      ....  0.003300
   Hessian update       SOSCFHessUp     .... L-BFGS
 Level Shifting         CNVShift        .... on
   Level shift para.    LevelShift      ....    0.2500
   Turn off err/grad.   ShiftErr        ....    0.0010
 Zerner damping         CNVZerner       .... off
 Static damping         CNVDamp         .... on
   Fraction old density DampFac         ....    0.7000
   Max. Damping (<1)    DampMax         ....    0.9800
   Min. Damping (>=0)   DampMin         ....    0.0000
   Turn off err/grad.   DampErr         ....    0.1000

SCF Procedure:
 Maximum # iterations   MaxIter         ....   125
 SCF integral mode      SCFMode         .... Direct
   Integral package                     .... SHARK and LIBINT hybrid scheme
 Reset frequency        DirectResetFreq ....    20
 Integral Threshold     Thresh          ....  1.000e-12 Eh
 Primitive CutOff       TCut            ....  1.000e-13 Eh

Convergence Tolerance:
 Convergence Check Mode ConvCheckMode   .... Total+1el-Energy
 Convergence forced     ConvForced      .... 0
 Energy Change          TolE            ....  1.000e-06 Eh
 1-El. energy change                    ....  1.000e-03 Eh
 Orbital Gradient       TolG            ....  5.000e-05
 Orbital Rotation angle TolX            ....  5.000e-05
 DIIS Error             TolErr          ....  1.000e-06

------------------------------
INITIAL GUESS: MODEL POTENTIAL
------------------------------
Loading Hartree-Fock densities                     ... done
Calculating cut-offs                               ... done
Initializing the effective Hamiltonian             ... done
Setting up the integral package (SHARK)            ... done
Starting the Coulomb interaction                   ... done (   0.8 sec)
Making the grid                                    ... done (   0.5 sec)
Mapping shells                                     ... done
Starting the XC term evaluation                    ... done (   0.2 sec)
  promolecular density results
     # of electrons  =    246.002170457
     EX              =   -200.018508999
     EC              =      0.284553367
     EX+EC           =   -199.733955631
Transforming the Hamiltonian                       ... done (   0.6 sec)
Diagonalizing the Hamiltonian                      ... done (   0.7 sec)
Back transforming the eigenvectors                 ... done (   0.4 sec)
Now organizing SCF variables                       ... done
                      ------------------
                      INITIAL GUESS DONE (   4.3 sec)
                      ------------------
             **** ENERGY FILE WAS UPDATED (compas3x_hc_c38h18_0pent_1_qz_riri.en.tmp) ****
Finished Guess after  22.7 sec
Maximum memory used throughout the entire GUESS-calculation: 389.3 MB


           ************************************************************
           *        Program running with 104 parallel MPI-processes   *
           *              working on a common directory               *
           ************************************************************

-------------------------------------------------------------------------------------------
                                      ORCA LEAN-SCF
                              memory conserving SCF solver
-------------------------------------------------------------------------------------------


Warning (ORCA_SCF): Not enough memory available!
                    Memory available for SCF calculation:       1024.0 MB
                    Memory needed (estimated)           :       1278.2 MB


----------------------------------------D-I-I-S--------------------------------------------
Iteration    Energy (Eh)           Delta-E    RMSDP     MaxDP     DIISErr   Damp  Time(sec)
-------------------------------------------------------------------------------------------
    1    -1452.7936101380773835     0.00e+00  4.55e-04  1.23e-01  1.52e-01  0.700  48.0
    2    -1452.5485026426367767     2.45e-01  6.54e-04  2.16e-01  1.35e-01  0.700  51.8
                               ***Turning on AO-DIIS***
    3    -1452.7083235109066663    -1.60e-01  2.32e-04  2.49e-02  7.89e-02  0.700  47.6
    4    -1453.0119003988129407    -3.04e-01  1.05e-03  3.94e-01  4.05e-02  0.000  48.3
    5    -1453.5143139815854738    -5.02e-01  1.63e-04  4.59e-02  3.34e-02  0.000  48.6
    6    -1453.5355946643212519    -2.13e-02  1.32e-04  4.81e-02  1.63e-02  0.000  48.8
    7    -1453.5406864674005192    -5.09e-03  7.11e-05  2.77e-02  5.01e-03  0.000  49.5
                              *** Initializing SOSCF ***
---------------------------------------S-O-S-C-F--------------------------------------
Iteration    Energy (Eh)           Delta-E    RMSDP     MaxDP     MaxGrad    Time(sec)
--------------------------------------------------------------------------------------
    8    -1453.5412995635369953    -6.13e-04  5.49e-05  2.11e-02  1.29e-03    51.5
    9    -1453.5413541584066479    -5.46e-05  2.37e-05  8.78e-03  4.74e-04    45.6
   10    -1453.5413666652966640    -1.25e-05  3.02e-05  1.20e-02  2.01e-04    46.4
   11    -1453.5413689997776601    -2.33e-06  9.18e-06  2.74e-03  1.02e-04    46.0
   12    -1453.5413700661229086    -1.07e-06  4.91e-06  1.86e-03  3.21e-05    46.0
   13    -1453.5413701339521140    -6.78e-08  8.71e-07  3.34e-04  1.98e-05    46.0
                 **** Energy Check signals convergence ****

               *****************************************************
               *                     SUCCESS                       *
               *           SCF CONVERGED AFTER  13 CYCLES          *
               *****************************************************

             **** ENERGY FILE WAS UPDATED (compas3x_hc_c38h18_0pent_1_qz_riri.en.tmp) ****

----------------
TOTAL SCF ENERGY
----------------

Total Energy       :      -1453.54137013395211 Eh          -39552.87151 eV

Components:
Nuclear Repulsion  :       3730.51789014275073 Eh          101512.55259 eV
Electronic Energy  :      -5184.05926027670284 Eh         -141065.42410 eV
One Electron Energy:      -9390.71098454870662 Eh         -255534.23700 eV
Two Electron Energy:       4206.65172427200378 Eh          114468.81290 eV

Virial components:
Potential Energy   :      -2903.95235769352985 Eh          -79020.56098 eV
Kinetic Energy     :       1450.41098755957751 Eh           39467.68947 eV
Virial Ratio       :          2.00215827279387

DFT components:
N(Alpha)           :      123.000003741972 electrons
N(Beta)            :      123.000003741972 electrons
N(Total)           :      246.000007483944 electrons
E(X)               :      -63.013594597253 Eh       
E(C)               :       -3.694226726772 Eh       
E(XC)              :      -66.707821324025 Eh       

---------------
SCF CONVERGENCE
---------------

  Last Energy change         ...    6.7829e-08  Tolerance :   1.0000e-06
  Last MAX-Density change    ...    3.3411e-04  Tolerance :   1.0000e-05
  Last RMS-Density change    ...    8.7140e-07  Tolerance :   1.0000e-06
  Last DIIS Error            ...    1.2871e-03  Tolerance :   1.0000e-06
  Last Orbital Gradient      ...    1.9784e-05  Tolerance :   5.0000e-05
  Last Orbital Rotation      ...    7.6979e-05  Tolerance :   5.0000e-05


----------------
ORBITAL ENERGIES
----------------

  NO   OCC          E(Eh)            E(eV) 
   0   2.0000     -10.838011      -294.9173 
   1   2.0000     -10.837158      -294.8941 
   2   2.0000     -10.836758      -294.8832 
   3   2.0000     -10.836696      -294.8815 
   4   2.0000     -10.836572      -294.8781 
   5   2.0000     -10.836239      -294.8691 
   6   2.0000     -10.836146      -294.8665 
   7   2.0000     -10.835854      -294.8586 
   8   2.0000     -10.835776      -294.8564 
   9   2.0000     -10.835648      -294.8530 
  10   2.0000     -10.835407      -294.8464 
  11   2.0000     -10.835016      -294.8358 
  12   2.0000     -10.834855      -294.8314 
  13   2.0000     -10.834280      -294.8157 
  14   2.0000     -10.833700      -294.8000 
  15   2.0000     -10.832840      -294.7766 
  16   2.0000     -10.832520      -294.7679 
  17   2.0000     -10.831610      -294.7431 
  18   2.0000     -10.831318      -294.7352 
  19   2.0000     -10.831094      -294.7291 
  20   2.0000     -10.824014      -294.5364 
  21   2.0000     -10.823833      -294.5315 
  22   2.0000     -10.823820      -294.5311 
  23   2.0000     -10.823594      -294.5250 
  24   2.0000     -10.823499      -294.5224 
  25   2.0000     -10.823145      -294.5128 
  26   2.0000     -10.822923      -294.5067 
  27   2.0000     -10.822626      -294.4986 
  28   2.0000     -10.822592      -294.4977 
  29   2.0000     -10.822575      -294.4972 
  30   2.0000     -10.822555      -294.4967 
  31   2.0000     -10.822407      -294.4927 
  32   2.0000     -10.822209      -294.4873 
  33   2.0000     -10.822019      -294.4821 
  34   2.0000     -10.821919      -294.4794 
  35   2.0000     -10.821354      -294.4640 
  36   2.0000     -10.821126      -294.4578 
  37   2.0000     -10.820731      -294.4471 
  38   2.0000      -1.111303       -30.2401 
  39   2.0000      -1.089580       -29.6490 
  40   2.0000      -1.076256       -29.2864 
  41   2.0000      -1.060807       -28.8660 
  42   2.0000      -1.034288       -28.1444 
  43   2.0000      -1.027512       -27.9600 
  44   2.0000      -1.011974       -27.5372 
  45   2.0000      -1.010354       -27.4931 
  46   2.0000      -0.981532       -26.7088 
  47   2.0000      -0.961875       -26.1740 
  48   2.0000      -0.958087       -26.0709 
  49   2.0000      -0.949043       -25.8248 
  50   2.0000      -0.921888       -25.0858 
  51   2.0000      -0.915330       -24.9074 
  52   2.0000      -0.910665       -24.7805 
  53   2.0000      -0.899771       -24.4840 
  54   2.0000      -0.897345       -24.4180 
  55   2.0000      -0.891640       -24.2627 
  56   2.0000      -0.847377       -23.0583 
  57   2.0000      -0.808060       -21.9884 
  58   2.0000      -0.795045       -21.6343 
  59   2.0000      -0.790607       -21.5135 
  60   2.0000      -0.786556       -21.4033 
  61   2.0000      -0.779514       -21.2117 
  62   2.0000      -0.771451       -20.9923 
  63   2.0000      -0.753313       -20.4987 
  64   2.0000      -0.735730       -20.0202 
  65   2.0000      -0.726407       -19.7665 
  66   2.0000      -0.710975       -19.3466 
  67   2.0000      -0.699675       -19.0391 
  68   2.0000      -0.669724       -18.2241 
  69   2.0000      -0.661018       -17.9872 
  70   2.0000      -0.650791       -17.7089 
  71   2.0000      -0.644707       -17.5434 
  72   2.0000      -0.637609       -17.3502 
  73   2.0000      -0.631055       -17.1719 
  74   2.0000      -0.619811       -16.8659 
  75   2.0000      -0.616179       -16.7671 
  76   2.0000      -0.602496       -16.3948 
  77   2.0000      -0.595486       -16.2040 
  78   2.0000      -0.584645       -15.9090 
  79   2.0000      -0.576330       -15.6827 
  80   2.0000      -0.572043       -15.5661 
  81   2.0000      -0.562620       -15.3097 
  82   2.0000      -0.559488       -15.2244 
  83   2.0000      -0.540882       -14.7181 
  84   2.0000      -0.539046       -14.6682 
  85   2.0000      -0.535537       -14.5727 
  86   2.0000      -0.534825       -14.5533 
  87   2.0000      -0.531513       -14.4632 
  88   2.0000      -0.528243       -14.3742 
  89   2.0000      -0.523707       -14.2508 
  90   2.0000      -0.515370       -14.0239 
  91   2.0000      -0.510379       -13.8881 
  92   2.0000      -0.509322       -13.8594 
  93   2.0000      -0.503671       -13.7056 
  94   2.0000      -0.498903       -13.5759 
  95   2.0000      -0.492183       -13.3930 
  96   2.0000      -0.486948       -13.2505 
  97   2.0000      -0.481801       -13.1105 
  98   2.0000      -0.480983       -13.0882 
  99   2.0000      -0.475816       -12.9476 
 100   2.0000      -0.470130       -12.7929 
 101   2.0000      -0.461326       -12.5533 
 102   2.0000      -0.452266       -12.3068 
 103   2.0000      -0.442110       -12.0304 
 104   2.0000      -0.435656       -11.8548 
 105   2.0000      -0.434305       -11.8180 
 106   2.0000      -0.429857       -11.6970 
 107   2.0000      -0.427704       -11.6384 
 108   2.0000      -0.416747       -11.3403 
 109   2.0000      -0.412241       -11.2176 
 110   2.0000      -0.403999       -10.9934 
 111   2.0000      -0.399913       -10.8822 
 112   2.0000      -0.375057       -10.2058 
 113   2.0000      -0.350441        -9.5360 
 114   2.0000      -0.349199        -9.5022 
 115   2.0000      -0.338841        -9.2203 
 116   2.0000      -0.309959        -8.4344 
 117   2.0000      -0.303030        -8.2459 
 118   2.0000      -0.300131        -8.1670 
 119   2.0000      -0.279923        -7.6171 
 120   2.0000      -0.274018        -7.4564 
 121   2.0000      -0.263811        -7.1786 
 122   2.0000      -0.199553        -5.4301 
 123   0.0000      -0.039868        -1.0849 
 124   0.0000       0.021348         0.5809 
 125   0.0000       0.028326         0.7708 
 126   0.0000       0.033564         0.9133 
 127   0.0000       0.038400         1.0449 
 128   0.0000       0.049845         1.3563 
 129   0.0000       0.057762         1.5718 
 130   0.0000       0.072371         1.9693 
 131   0.0000       0.076312         2.0765 
 132   0.0000       0.077334         2.1044 
 133   0.0000       0.084718         2.3053 
*Only the first 10 virtual orbitals were printed.
-------
TIMINGS
-------

Total SCF time: 0 days 0 hours 10 min 44 sec 

Total time                  ....     644.796 sec
Sum of individual times     ....     644.288 sec  ( 99.9%)

SCF preparation             ....      17.257 sec  (  2.7%)
Fock matrix formation       ....     570.415 sec  ( 88.5%)
  Startup                   ....       4.191 sec  (  0.7% of F)
  RI-JK                     ....     530.135 sec  ( 92.9% of F)
  XC integration            ....      24.971 sec  (  4.4% of F)
    XC Preparation          ....       0.000 sec  (  0.0% of XC)
    Basis function eval.    ....       1.729 sec  (  6.9% of XC)
    Density eval.           ....       5.348 sec  ( 21.4% of XC)
    XC-Functional eval.     ....       0.049 sec  (  0.2% of XC)
    XC-Potential eval.      ....       6.984 sec  ( 28.0% of XC)
Diagonalization             ....       0.000 sec  (  0.0%)
Density matrix formation    ....       8.013 sec  (  1.2%)
Total Energy calculation    ....       3.734 sec  (  0.6%)
Population analysis         ....       0.000 sec  (  0.0%)
Orbital Transformation      ....       5.061 sec  (  0.8%)
Orbital Orthonormalization  ....       0.000 sec  (  0.0%)
DIIS solution               ....      29.287 sec  (  4.5%)
SOSCF solution              ....      10.230 sec  (  1.6%)
Finished LeanSCF after 645.8 sec

Maximum memory used throughout the entire LEANSCF-calculation: 1347.9 MB


           ************************************************************
           *        Program running with 104 parallel MPI-processes   *
           *              working on a common directory               *
           ************************************************************

------------------------------------------------------------------------------
                                ORCA  MP2 
------------------------------------------------------------------------------


-------------
RI-MP2 ENERGY
-------------
Dimension of the orbital basis            ... 2706
Dimension of the AuxC basis               ... 6366
Memory devoted to MP2                     ... 4096 MB   
Data format for matrix containers         ... DOUBLE
Compression type for matrix containers    ... UNCOMPRESSED
Scaling for aa/bb pairs                   ...   5.710e-02
Scaling for ab pairs                      ...   5.979e-01
Overall scaling of the MP2 energy         ...   1.000e+00

-----------------------
SHARK RI TRANSFORMATION
-----------------------

Number of basis functions                ...   2706
Number of aux functions                  ...   6366
Number of operators                      ...      1
Generation of IJK                        ... NO
Generation of IAK                        ... YES
Generation of ABK                        ... NO
Orbital Range Operator  0:    0- 122 to  123-2705

Aux basis identifier                     ...   AUXC
Contraction scheme used                  ... SEGMENTED
Do orthogonalization                     ... YES
All operator combinations                ... NO
Transpose (ia|K)                         ... NO
Integral generator used                  ... LIBINT
Starting integral generation + trafo... 
Half trafo (segmented) done. Total time = 18.3 sec. integrals=  3.6 sec trafo= 13.7 sec
Integral generation and half transformation done ( 18.3 sec)

Reading or making V^(-1/2)          ... done (  0.7 sec)
Sorting IAK integrals               ... done ( 21.1 sec)

SHARK RI integral transformation done. Total time = 40.4 sec.

Opening buffers                              ... done

Starting loop over batches of integrals:

Operator 0  - window                       ... (  0-122)x(123-2705)
Operator 0  - Memory available             ...  4096 MB
Operator 0  - Memory needed per MO         ... 125.5 MB
Operator 0  - Number of orbitals per batch ... 2
Operator 0  - Number of batches            ... 1

OPERATOR  0   PASS   0:  MOs     0 ...    1 +    2 ...    3 +    4 ...    5 +    6 ...    7
                            +    8 ...    9 +   10 ...   11 +   12 ...   13 +   14 ...   15
                            +   16 ...   17 +   18 ...   19 +   20 ...   21 +   22 ...   23
                            +   24 ...   25 +   26 ...   27 +   28 ...   29 +   30 ...   31
                            +   32 ...   33 +   34 ...   35 +   36 ...   37 +   38 ...   39
                            +   40 ...   41 +   42 ...   43 +   44 ...   45 +   46 ...   47
                            +   48 ...   49 +   50 ...   51 +   52 ...   53 +   54 ...   55
                            +   56 ...   57 +   58 ...   59 +   60 ...   61 +   62 ...   63
                            +   64 ...   65 +   66 ...   67 +   68 ...   69 +   70 ...   71
                            +   72 ...   73 +   74 ...   75 +   76 ...   77 +   78 ...   79
                            +   80 ...   81 +   82 ...   83 +   84 ...   85 +   86 ...   87
                            +   88 ...   89 +   90 ...   91 +   92 ...   93 +   94 ...   95
                            +   96 ...   97 +   98 ...   99 +  100 ...  101 +  102 ...  103
                            +  104 ...  105 +  106 ...  107 +  108 ...  109 +  110 ...  111
                            +  112 ...  113 +  114 ...  115 +  116 ...  117 +  118 ...  119
                            +  120 ...  121 +  122 ...  122
  Reading integrals       ... ok
Time spent in pair loops =   377.510 sec

-----------------------------------------------
 RI-MP2 CORRELATION ENERGY:     -3.719811775 Eh
-----------------------------------------------


-------
TIMINGS
-------

Total time                :  425.101 sec
Integral trafo            :   40.855 sec (  9.6%)
I/O of integrals          :    0.300 sec (  0.1%)
K(i,j) operators          :    4.721 sec (  1.1%)
T(i,j) pair energies      :    0.443 sec (  0.1%)
V**(-1/2)                 :    6.734 sec (  1.6%)


---------------------------------------
MP2 TOTAL ENERGY:    -1457.261181909 Eh
---------------------------------------

Maximum memory used throughout the entire MP2-calculation: 990.4 MB


-------------------------------------------------------------------------------
                          DFT DISPERSION CORRECTION                            
                                                                               
                                DFTD4 V3.4.0                                   
-------------------------------------------------------------------------------
The REV-DSD-PBEP86-2021 functional is recognized
A user input s6-coefficient scaling factor has been recognized
A user input a1-coefficient scaling factor has been recognized
A user input s8-coefficient scaling factor has been recognized
A user input a2-coefficient scaling factor has been recognized
A user input s9-coefficient scaling factor has been recognized
Active option DFTDOPT                   ...         5   

-------------------------   ----------------
Dispersion correction           -0.065455575
-------------------------   ----------------


-------------------------   --------------------
FINAL SINGLE POINT ENERGY     -1457.326637484184
-------------------------   --------------------



           ************************************************************
           *        Program running with 104 parallel MPI-processes   *
           *              working on a common directory               *
           ************************************************************

------------------------------------------------------------------------------
                              ORCA PROPERTY CALCULATIONS
------------------------------------------------------------------------------

GBWName                                 ... compas3x_hc_c38h18_0pent_1_qz_riri.gbw
Number of atoms                         ...     56
Number of basis functions               ...   2706
Max core memory                         ...   1024 MB

Electric properties:
Dipole moment                           ... YES
Quadrupole moment                       ...  NO
Static polarizability (Dipole/Dipole)   ...  NO
Static polarizability (Dipole/Quad.)    ...  NO
Static polarizability (Quad./Quad.)     ...  NO
Static polarizability (Velocity)        ...  NO

Atomic electric properties:
Dipole moment                           ...  NO
Quadrupole moment                       ...  NO
Static polarizability                   ...  NO

Choice of electric origin               ... Center of mass
Position of electric origin             ...    -0.065258     0.048325    -0.030294

General magnetic properties:
Magnetizability                         ...  NO

EPR properties:
g-Tensor (aka g-matrix)                 ...  NO
Zero-Field splitting spin-orbit         ...  NO
Zero-field splitting spin-spin          ...  NO
Hyperfine couplings                     ...  NO (   0 nuclei)
Quadrupole couplings                    ...  NO (   0 nuclei)
Contact density                         ...  NO (   0 nuclei)

NMR properties:
Chemical shifts                         ...  NO (   0 nuclei)
Spin-rotation constants                 ...  NO (   0 nuclei)
Spin-spin couplings                     ...  NO (   0 nuclei,    0 pairs)

Choice of magnetic origin               ... GIAO
Position of magnetic origin             ...     0.000000     0.000000     0.000000

Properties with geometric perturbations:
SCF Hessian                             ...  NO
IR spectrum                             ...  NO
VCD spectrum                            ...  NO
X-ray spectroscopy properties:
SCF XES/XAS/RIXS spectra                ...  NO


-------------
DIPOLE MOMENT
-------------

Method             : SCF
Type of density    : Electron Density
Multiplicity       :   1
Irrep              :   0
Energy             : -1453.5413701339521140 Eh
Relativity type    : 
Basis              : AO
                                X                 Y                 Z
Electronic contribution:     -1.993197290       1.387567316      -0.893383455
Nuclear contribution   :      1.982561994      -1.466612189       0.918370153
                        -----------------------------------------
Total Dipole Moment    :     -0.010635295      -0.079044872       0.024986699
                        -----------------------------------------
Magnitude (a.u.)       :      0.083579522
Magnitude (Debye)      :      0.212442262



--------------------
Rotational spectrum 
--------------------
 
Rotational constants in cm-1:             0.005601             0.002963             0.001974 
Rotational constants in MHz :           167.918085            88.840022            59.176083 

Dipole components along the rotational axes: 
x,y,z [a.u.] :    -0.060446    -0.053203     0.022388 
x,y,z [Debye]:    -0.153643    -0.135231     0.056907 

 

Dipole moment calculation done in   0.5 sec 

Maximum memory used throughout the entire PROP-calculation: 446.2 MB

--------------------------------
SUGGESTED CITATIONS FOR THIS RUN
--------------------------------

Below you find a list of papers that are relevant to this ORCA run
We neither can nor want to force you to cite these papers, but we appreciate if you do
You receive ORCA, which is the product of decades of hard work by many enthusiastic individuals, for free
The only thing we kindly ask in return is that you cite our papers,
We deeply appreciate it, if you show your appreciation for ORCA by not just citing the generic ORCA reference.

Please note that relegating all ORCA citations to the supporting information does *not* help us.
SI sections are not indexed - citations you put there will not count into any citation statistics
But we need these citations in order to attract the funding resources that allow us to do what we are doing

Therefore, if you are a happy ORCA user, please consider citing a few of the papers listed below in the main body of your paper

In addition to the list printed below, the program has created the file compas3x_hc_c38h18_0pent_1_qz_riri.bibtex that contains the list in bibtex format
You can import this file easily into all common literature databanks and citation aid programs


List of essential papers. We consider these as the minimum necessary citations

  1. Neese,F.
     Software update: the ORCA program system, version 5.0
     WIRES Comput. Molec. Sci., 2022 12(1)e1606
     doi.org/10.1002/wcms.1606

List of papers to cite with high priority. The work reported in these papers was absolutely
necessary for this run to complete.
Our perspective: the developers of density functionals and basis sets usually get cited in chemistry papers
Good! But without the algorithms to do something with them, the functionals or basis sets would not do anything.
Hence, in our opinion, the algorithm design and method developments papers are equally worthy of getting cited

  1. Neese,F.
     An improvement of the resolution of the identity approximation for the formation of the Coulomb matrix
     J. Comp. Chem., 2003 24(14)1740-1747
     doi.org/10.1002/jcc.10318
  2. Kossmann,S.; Neese,F.
     Comparison of two efficient approximate Hartee-Fock approaches
     Chem. Phys. Lett., 2009 481 240-243
     doi.org/10.1016/j.cplett.2009.09.073
  3. Neese,F.
     The SHARK Integral Generation and Digestion System
     J. Comp. Chem., 2022  1-16
     doi.org/10.1002/jcc.26942
  4. Caldeweyher,E.; Bannwarth,C.; Grimme,S.
     Extension of the D3 dispersion coefficient model
     J. Chem. Phys., 2017 147 034112
     doi.org/10.1063/1.4993215
  5. Caldeweyher,E.; Ehlert,S.; Hansen,A.; Neugebauer,H.; Spicher,S.; Bannwarth,C.; Grimme,S.
     A generally applicable atomic-charge dependent London dispersion correction
     J. Chem. Phys., 2019 150 154122
     doi.org/10.1063/1.5090222
  6. Caldeweyher,E.; Mewes,J.; Ehlert,S.; Grimme,S.
     Extension and evaluation of the D4 London-dispersion model for periodic systems
     Phys. Chem. Chem. Phys., 2020 22(16)8499-8512
     doi.org/10.1039/D0CP00502A
  7. Wittmann,L.; Gordiy,I.; Friede,M.; Helmich-Paris,B.; Grimme,S.; Hansen,A.; Bursch,M.
     Extension of the D3 and D4 London Dispersion Corrections to the full Actinides Series
     Phys. Chem. Chem. Phys., 2024 26(32)21379-21394
     doi.org/https://doi.org/10.1039/D4CP01514B 

List of suggested additional citations. These are papers that are important in the 'surrounding' of 
of this run, or papers that preceded the highly important papers. If you like your results we are grateful for a citation.

  1. Neese,F.
     The ORCA program system
     WIRES Comput. Molec. Sci., 2012 2(1)73-78
     doi.org/10.1002/wcms.81
  2. Neese,F.
     Software update: the ORCA program system, version 4.0
     WIRES Comput. Molec. Sci., 2018 8(1)1-6
     doi.org/10.1002/wcms.1327
  3. Neese,F.; Wennmohs,F.; Becker,U.; Riplinger,C.
     The ORCA quantum chemistry program package
     J. Chem. Phys., 2020 152 Art. No. L224108
     doi.org/10.1063/5.0004608

List of optional additional citations

  1. Neese,F.
     Approximate second-order SCF convergence for spin unrestricted wavefunctions
     Chem. Phys. Lett., 2000 325(1-3)93-98
     doi.org/10.1016/s0009-2614(00)00662-x

Timings for individual modules:

Sum of individual times          ...     1172.153 sec (=  19.536 min)
Startup calculation              ...       35.627 sec (=   0.594 min)   3.0 %
SCF iterations                   ...      671.783 sec (=  11.196 min)  57.3 %
Property calculations            ...       18.621 sec (=   0.310 min)   1.6 %
MP2 module                       ...      446.123 sec (=   7.435 min)  38.1 %
                             ****ORCA TERMINATED NORMALLY****
TOTAL RUN TIME: 0 days 0 hours 20 minutes 1 seconds 536 msec
