
                                 *****************
                                 * O   R   C   A *
                                 *****************

                                            #,                                       
                                            ###                                      
                                            ####                                     
                                            #####                                    
                                            ######                                   
                                           ########,                                 
                                     ,,################,,,,,                         
                               ,,#################################,,                 
                          ,,##########################################,,             
                       ,#########################################, ''#####,          
                    ,#############################################,,   '####,        
                  ,##################################################,,,,####,       
                ,###########''''           ''''###############################       
              ,#####''   ,,,,##########,,,,          '''####'''          '####       
            ,##' ,,,,###########################,,,                        '##       
           ' ,,###''''                  '''############,,,                           
         ,,##''                                '''############,,,,        ,,,,,,###''
      ,#''                                            '''#######################'''  
     '                                                          ''''####''''         
             ,#######,   #######,   ,#######,      ##                                
            ,#'     '#,  ##    ##  ,#'     '#,    #''#        ,####,   ,####,        
            ##       ##  ##   ,#'  ##            #'  '#       #'       #'  '#        
            ##       ##  #######   ##           ,######,      #####,   #    #        
            '#,     ,#'  ##    ##  '#,     ,#' ,#      #,     #,   #   #,  ,#        
             '#######'   ##     ##  '#######'  #'      '#     '####' # '####'        



                #########################################################
                #                        -***-                          #
                #          Department of theory and spectroscopy        #
                #                                                       #
                #                      Frank Neese                      #
                #                                                       #
                #     Directorship, Architecture, Infrastructure        #
                #                    SHARK, DRIVERS                     #
                #        Core code/Algorithms in most modules           #
                #                                                       #
                #        Max Planck Institute fuer Kohlenforschung      #
                #                Kaiser Wilhelm Platz 1                 #
                #                 D-45470 Muelheim/Ruhr                 #
                #                      Germany                          #
                #                                                       #
                #                  All rights reserved                  #
                #                        -***-                          #
                #########################################################


                         Program Version 6.0.1  -  RELEASE   -


 With contributions from (in alphabetic order):
[Max-Planck-Institut fuer Kohlenforschung]                               
  Daniel Aravena         : Magnetic Suceptibility                        
  Michael Atanasov       : Ab Initio Ligand Field Theory (pilot matlab implementation)
  Alexander A. Auer      : GIAO ZORA, VPT2 properties, NMR spectrum      
  Ute Becker             : All parallelization in ORCA, NUMFREQ, NUMCALC 
  Giovanni Bistoni       : ED, misc. LED, open-shell LED, HFLD           
  Martin Brehm           : Molecular dynamics                            
  Dmytro Bykov           : pre 5.0 version of the SCF Hessian            
  Marcos Casanova-Páez   : Triplet and SCS-CIS(D). UHF-(DLPNO)-IP/EA/STEOM-CCSD. UHF-CVS-IP/STEOM-CCSD   
  Vijay G. Chilkuri      : MRCI spin determinant printing, contributions to CSF-ICE 
  Pauline Colinet        : FMM embedding                                 
  Dipayan Datta          : RHF DLPNO-CCSD density                        
  Achintya Kumar Dutta   : EOM-CC, STEOM-CC                              
  Nicolas Foglia         : Exact transition moments, OPA infrastructure, MCD improvements    
  Dmitry Ganyushin       : Spin-Orbit,Spin-Spin,Magnetic field MRCI      
  Miquel Garcia-Rates    : C-PCM and meta-GGA Hessian, CCSD/C-PCM, Gaussian charge scheme 
  Tiago L. C. Gouveia    : GS-ROHF, GS-ROCIS                             
  Yang Guo               : DLPNO-NEVPT2, F12-NEVPT2, CIM, IAO-localization        
  Andreas Hansen         : Spin unrestricted coupled pair/coupled cluster methods 
  Ingolf Harden          : AUTO-CI MPn and infrastructure                
  Benjamin Helmich-Paris : MC-RPA, TRAH-(SCF,CASSCF), AVAS, COSX integrals, SCF dyn. polar. 
  Lee Huntington         : MR-EOM, pCC                                   
  Robert Izsak           : Overlap fitted RIJCOSX, COSX-SCS-MP3, EOM     
  Riya Kayal             : Wick's Theorem for AUTO-CI, AUTO-CI UHF-CCSDT 
  Emily Kempfer          : AUTO-CI, RHF CISDT and CCSDT                  
  Christian Kollmar      : KDIIS, OOCD, Brueckner-CCSD(T), CCSD density, CASPT2, CASPT2-K, improved NEVPT2 
  Axel Koslowski         : Symmetry handling                             
  Simone Kossmann        : meta-GGA functionals, TD-DFT gradient, OOMP2, (MP2 Hessian; deprecated post 5.0) 
  Lucas Lang             : DCDCAS                                        
  Marvin Lechner         : AUTO-CI (C++ implementation), FIC-MRCC        
  Spencer Leger          : CASSCF response                               
  Dagmar Lenk            : GEPOL surface, SMD, ORCA-2-JSON               
  Dimitrios Liakos       : Extrapolation schemes; Compound Job, initial MDCI parallelization 
  Dimitrios Manganas     : Further ROCIS development; embedding schemes. LFT, Crystal Embedding 
  Dimitrios Pantazis     : SARC Basis sets                               
  Anastasios Papadopoulos: AUTO-CI, single reference methods and gradients 
  Taras Petrenko         : pre 6.0 DFT Hessian and TD-DFT gradient, (ASA, deprecated), ECA, 1-Electron XAS/XES, NRVS 
  Peter Pinski           : DLPNO-MP2, DLPNO-MP2 Gradient                 
  Christoph Reimann      : Effective Core Potentials                     
  Marius Retegan         : Local ZFS, SOC                                
  Christoph Riplinger    : Optimizer, TS searches, QM/MM, DLPNO-CCSD(T), (RO)-DLPNO pert. Triples 
  Michael Roemelt        : Original ROCIS implementation                 
  Masaaki Saitow         : Open-shell DLPNO-CCSD energy and density      
  Barbara Sandhoefer     : DKH picture change effects                    
  Kantharuban Sivalingam : CASSCF convergence/infrastructure, NEVPT2 and variants, FIC-MRCI 
  Bernardo de Souza      : ESD, SOC TD-DFT                               
  Georgi L. Stoychev     : AutoAux, RI-MP2 NMR, DLPNO-MP2 response, X2C  
  Van Anh Tran           : RI-MP2 g-tensors                              
  Willem Van den Heuvel  : Paramagnetic NMR                              
  Zikuan Wang            : NOTCH, Electric field optimization            
  Frank Wennmohs         : Technical directorship and infrastructure     
  Hang Xu                : AUTO-CI-Response properties                   
                                                                         
[FACCTs GmbH]                                                            
  Markus Bursch, Miquel Garcia-Rates, Christoph Riplinger, Bernardo de Souza, Georgi L. Stoychev 
                                                                 
  APM, Basis sets (HGBS, AHGBS, def-TZVP (Ac-Lr), def2-XVPD (La-Lu)), CI-OPT, improved COSX, DLPNO-Multilevel,           
  DOCKER, DRACO, updates on ESD, GOAT, IRC, LR-CPCM, MBIS, meta-GGA TD-DFT gradient, ML-optimized integration grids, 
  MM, NACMEs, nearIR, NEB, NEB-TS, NL-DFT gradient (VV10), 2- and 3-layer-ONIOM, interface openCOSMO-RS, QMMM,   
  Crystal-QMMM, SF, symmetry and pop. for TD-DFT, r2SCAN hybrids, SOLVATOR                                   
                                                                         
[Other institutions]                                                     
  V. Asgeirsson          : NEB                                           
  Christoph Bannwarth    : sTDA-DFT, sTD-DFT, PBEh-3c, B97-3c, D3        
  Sebastian Ehlert       : rSCAN, r2SCAN, r2SCAN-3c, D4, dhf basis sets  
  Marvin Friede          : D4 for Fr, Ra, Ac-Lr                          
  Lars Goerigk           : TD-DFT with DH, B97 family of functionals     
  Stefan Grimme          : VdW corrections, initial TS optimization, DFT functionals, gCP, sTDA/sTD-DF 
  Waldemar Hujo          : DFT-NL                                        
  H. Jonsson             : NEB                                           
  Holger Kruse           : gCP                                           
  Marcel Mueller         : wB97X-3c, vDZP basis set                      
  Hagen Neugebauer       : wr2SCAN                                       
  Tobias Risthaus        : range-separated hybrid DFT                    
  Lukas Wittmann         : regularized MP2, r2SCAN double-hybrids, wr2SCAN        
                                                                         
We gratefully acknowledge several colleagues who have allowed us to      
interface, adapt or use parts of their codes:                            
  Ed Valeev, F. Pavosevic, A. Kumar             : LibInt (2-el integral package), F12 methods 
  Garnet Chan, S. Sharma, J. Yang, R. Olivares  : DMRG                   
  Ulf Ekstrom                                   : XCFun DFT Library      
  Mihaly Kallay                                 : mrcc  (arbitrary order and MRCC methods)
  Frank Weinhold                                : gennbo (NPA and NBO analysis)           
  Simon Mueller                                 : openCOSMO-RS                            
  Christopher J. Cramer and Donald G. Truhlar   : smd solvation model                     
  S Lehtola, MJT Oliveira, MAL Marques          : LibXC Library                           
  Liviu Ungur et al                             : ANISO software                          


 Your calculation uses the libint2 library for the computation of 2-el integrals
 For citations please refer to: http://libint.valeyev.net

 Your ORCA version has been built with support for libXC version: 6.2.2
 For citations please refer to: https://libxc.gitlab.io

 This ORCA versions uses:
   CBLAS   interface :  Fast vector & matrix operations
   LAPACKE interface :  Fast linear algebra routines
   SCALAPACK package :  Parallel linear algebra routines
   Shared memory     :  Shared parallel matrices
   BLAS/LAPACK       :  OpenBLAS 0.3.27  USE64BITINT DYNAMIC_ARCH NO_AFFINITY SapphireRapids SINGLE_THREADED
        Core in use  :  SapphireRapids
   Copyright (c) 2011-2014, The OpenBLAS Project


Warning! Weird basis set assignment to AuxJK basis!


***************************************
The coordinates will be read from file: /g/data/kx58/rs2200/dhdft/inputs/compas3x-xyzs/hc_c32h16_0pent_3.xyz
***************************************


Your calculation utilizes the atom-pairwise dispersion correction
based on EEQ partial charges (D4)


================================================================================

----- Orbital basis set information -----
Your calculation utilizes the basis: def2-QZVPP
   F. Weigend and R. Ahlrichs, Phys. Chem. Chem. Phys. 7, 3297 (2005).

----- AuxC basis set information -----
Your calculation utilizes the auxiliary basis: def2-QZVPP/C
  H-La, Hf-Rn : A. Hellweg, C. Hattig, S. Hofener and W. Klopper, Theor. Chem. Acc. 117, 587 (2007).
        Ce-Lu : J. Chmela and M. E. Harding, Mol. Phys. (2018).

----- AuxJK basis set information -----
Your calculation utilizes the auxiliary basis: def2-QZVPP/C
  H-La, Hf-Rn : A. Hellweg, C. Hattig, S. Hofener and W. Klopper, Theor. Chem. Acc. 117, 587 (2007).
        Ce-Lu : J. Chmela and M. E. Harding, Mol. Phys. (2018).

================================================================================
                                        WARNINGS
                       Please study these warnings very carefully!
================================================================================


WARNING: No MP2 level density has been requested!
         To calculate MP2 level properties use
         %mp2 Density relaxed end
         or
         %mp2 Density unrelaxed end
         Otherwise for double-hybrid DFT only the energy is correct!

================================================================================
                                       INPUT FILE
================================================================================
NAME = compas3x_hc_c32h16_0pent_3_qz_riri.inp
|  1> ! RKS revDSD-PBEP86-D4/2021 defgrid3  RIJK NOPOP NoFrozencore NoUseSym
|  2> 
|  3> %basis
|  4> Basis "def2-QZVPP"
|  5> AuxJK "def2-QZVPP/C"
|  6> AuxC "def2-QZVPP/C"
|  7> end
|  8> 
|  9> %method
| 10> ScalHFX 0.69
| 11> ScalDFX 0.31
| 12> ScalDFC 0.4038
| 13> ScalLDAC 0.4038
| 14> 
| 15> D4S6 0.4612
| 16> D4S8 0.0
| 17> D4A1 0.44
| 18> D4A2 3.60
| 19> end
| 20> 
| 21> %mp2
| 22> PS 0.5979
| 23> PT 0.0571
| 24> 
| 25> end
| 26> 
| 27> %pal
| 28> nprocs 104
| 29> end
| 30> 
| 31> *XYZFILE 0 1 /g/data/kx58/rs2200/dhdft/inputs/compas3x-xyzs/hc_c32h16_0pent_3.xyz
| 32> 
| 33>                          ****END OF INPUT****
================================================================================

                       ****************************
                       * Single Point Calculation *
                       ****************************

---------------------------------
CARTESIAN COORDINATES (ANGSTROEM)
---------------------------------
  C      0.623674   -0.813656   -0.014020
  C     -0.545211   -0.029886   -0.011982
  C     -0.457172    1.405171   -0.001928
  C      0.806074    2.029824   -0.012939
  C      2.004892    1.264363   -0.031380
  C      1.915364   -0.189157   -0.012773
  C      0.526613   -2.238781   -0.013389
  C     -0.731422   -2.815492   -0.029027
  C     -1.904986   -2.056412   -0.035759
  C     -1.820771   -0.638353   -0.018697
  C     -3.017897    0.128361   -0.012065
  C     -2.923964    1.578835    0.021594
  C     -1.634152    2.181784    0.017755
  C     -1.535865    3.605984    0.036833
  C     -0.281332    4.207830    0.019555
  C      0.888552    3.454526   -0.010285
  C      3.033453   -0.981975    0.012066
  C      2.977490   -2.394846    0.022758
  C      1.725607   -3.047736    0.004541
  C     -3.168131   -2.683440   -0.056953
  C     -4.308288   -1.930493   -0.062582
  C     -4.232351   -0.537546   -0.039556
  C     -4.041286    2.393975    0.059836
  C     -3.938078    3.787493    0.085761
  C     -2.713283    4.387788    0.071283
  C      2.155165    4.080626   -0.038142
  C      3.292119    3.327586   -0.071922
  C      3.216378    1.932182   -0.068479
  C      4.161948   -3.152165    0.048759
  C      4.120073   -4.521970    0.055424
  C      2.886108   -5.171838    0.035466
  C      1.716474   -4.449097    0.010566
  H     -0.842736   -3.888115   -0.036048
  H     -0.213704    5.286724    0.028111
  H      4.019753   -0.545645    0.026528
  H     -3.214433   -3.762704   -0.070748
  H     -5.278439   -2.405466   -0.083332
  H     -5.158559    0.013990   -0.044772
  H     -5.030850    1.966532    0.071816
  H     -4.840062    4.381437    0.116080
  H     -2.619172    5.463798    0.087888
  H      2.199957    5.159882   -0.035848
  H      4.262945    3.800884   -0.100016
  H      4.144699    1.385191   -0.097324
  H      5.109832   -2.632746    0.063140
  H      5.032968   -5.098845    0.075207
  H      2.849992   -6.251468    0.039991
  H      0.783010   -4.988936   -0.002994

----------------------------
CARTESIAN COORDINATES (A.U.)
----------------------------
  NO LB      ZA    FRAG     MASS         X           Y           Z
   0 C     6.0000    0    12.011    1.178573   -1.537587   -0.026495
   1 C     6.0000    0    12.011   -1.030299   -0.056477   -0.022643
   2 C     6.0000    0    12.011   -0.863930    2.655388   -0.003643
   3 C     6.0000    0    12.011    1.523260    3.835812   -0.024451
   4 C     6.0000    0    12.011    3.788698    2.389299   -0.059299
   5 C     6.0000    0    12.011    3.619514   -0.357456   -0.024138
   6 C     6.0000    0    12.011    0.995154   -4.230684   -0.025302
   7 C     6.0000    0    12.011   -1.382187   -5.320509   -0.054852
   8 C     6.0000    0    12.011   -3.599901   -3.886056   -0.067575
   9 C     6.0000    0    12.011   -3.440759   -1.206313   -0.035333
  10 C     6.0000    0    12.011   -5.702999    0.242568   -0.022800
  11 C     6.0000    0    12.011   -5.525491    2.983566    0.040807
  12 C     6.0000    0    12.011   -3.088100    4.122974    0.033553
  13 C     6.0000    0    12.011   -2.902365    6.814322    0.069604
  14 C     6.0000    0    12.011   -0.531640    7.951647    0.036954
  15 C     6.0000    0    12.011    1.679119    6.528108   -0.019435
  16 C     6.0000    0    12.011    5.732395   -1.855663    0.022801
  17 C     6.0000    0    12.011    5.626640   -4.525602    0.043007
  18 C     6.0000    0    12.011    3.260925   -5.759386    0.008581
  19 C     6.0000    0    12.011   -5.986900   -5.070968   -0.107625
  20 C     6.0000    0    12.011   -8.141484   -3.648103   -0.118263
  21 C     6.0000    0    12.011   -7.997984   -1.015814   -0.074750
  22 C     6.0000    0    12.011   -7.636923    4.523957    0.113073
  23 C     6.0000    0    12.011   -7.441889    7.157325    0.162065
  24 C     6.0000    0    12.011   -5.127361    8.291718    0.134705
  25 C     6.0000    0    12.011    4.072672    7.711265   -0.072078
  26 C     6.0000    0    12.011    6.221204    6.288226   -0.135913
  27 C     6.0000    0    12.011    6.078074    3.651295   -0.129407
  28 C     6.0000    0    12.011    7.864942   -5.956728    0.092142
  29 C     6.0000    0    12.011    7.785811   -8.545285    0.104737
  30 C     6.0000    0    12.011    5.453954   -9.773358    0.067021
  31 C     6.0000    0    12.011    3.243665   -8.407575    0.019966
  32 H     1.0000    0     1.008   -1.592541   -7.347473   -0.068121
  33 H     1.0000    0     1.008   -0.403842    9.990461    0.053123
  34 H     1.0000    0     1.008    7.596233   -1.031120    0.050131
  35 H     1.0000    0     1.008   -6.074398   -7.110480   -0.133694
  36 H     1.0000    0     1.008   -9.974804   -4.545672   -0.157474
  37 H     1.0000    0     1.008   -9.748264    0.026437   -0.084607
  38 H     1.0000    0     1.008   -9.506929    3.716207    0.135713
  39 H     1.0000    0     1.008   -9.146392    8.279716    0.219360
  40 H     1.0000    0     1.008   -4.949518   10.325082    0.166083
  41 H     1.0000    0     1.008    4.157317    9.750764   -0.067743
  42 H     1.0000    0     1.008    8.055799    7.182631   -0.189003
  43 H     1.0000    0     1.008    7.832347    2.617633   -0.183916
  44 H     1.0000    0     1.008    9.656184   -4.975168    0.119317
  45 H     1.0000    0     1.008    9.510932   -9.635420    0.142122
  46 H     1.0000    0     1.008    5.385704  -11.813562    0.075572
  47 H     1.0000    0     1.008    1.479674   -9.427723   -0.005658

--------------------------------
INTERNAL COORDINATES (ANGSTROEM)
--------------------------------
 C      0   0   0     0.000000000000     0.00000000     0.00000000
 C      1   0   0     1.407334490443     0.00000000     0.00000000
 C      2   1   0     1.437789925065   120.33215338     0.00000000
 C      3   2   1     1.409292098188   119.81680693     0.88395460
 C      4   3   2     1.422475440201   121.13242639   359.87896447
 C      1   2   3     1.434734580979   120.35436756   359.69063422
 C      1   2   3     1.428427294354   119.94662526   179.50730234
 C      7   1   2     1.384012309202   118.52168859     0.86089874
 C      8   7   1     1.397676307843   122.47775436   359.53444291
 C      2   1   3     1.413270383154   120.65412288   180.05004402
 C     10   2   1     1.421620671539   121.85760349   179.77391220
 C     11  10   2     1.453901975262   118.93098608   359.11864280
 C      3   2   1     1.410247364617   119.91005382   180.83039852
 C     13   3   2     1.427715334357   119.47664138   179.57473657
 C     14  13   3     1.391535949397   119.56023275     0.76641132
 C     15  14  13     1.391755866463   121.60029826   359.72091162
 C      6   1   2     1.370874968410   118.85350000   178.71675543
 C     17   6   1     1.414019313389   123.07368493     0.67426618
 C     18  17   6     1.412022427155   119.80142470     0.14332052
 C      9   8   7     1.410372213861   120.70524901   179.75421709
 C     20   9   8     1.366352510459   120.15979714   179.96307163
 C     11  10   2     1.385310804742   118.61262881   179.04547871
 C     12  11  10     1.383590682527   122.42701352   181.46170340
 C     23  12  11     1.397575439284   121.89164781   180.29914605
 C     24  23  12     1.364070226653   120.32535403     0.12249431
 C     16  15  14     1.413183300848   120.93199641   179.49879439
 C     26  16  15     1.364138630914   120.19428948   180.22907632
 C      5   4   3     1.383855983678   118.58472709   178.72959221
 C     18  17   6     1.406111705425   120.32834806   180.01729031
 C     29  18  17     1.370461455314   120.84280373   180.19027736
 C     30  29  18     1.394775044196   119.51624296     0.03229653
 C     31  30  29     1.375143469178   120.52192462   359.93662807
 H      8   7   1     1.078406766034   120.55459374   179.56831224
 H     15  14  13     1.081045617323   119.20558215   179.63345544
 H     17   6   1     1.078601334805   120.80363653   180.79075236
 H     20   9   8     1.080344332739   118.86288347   359.82946219
 H     21  20   9     1.080381461386   120.47264656   179.72069782
 H     22  11  10     1.077998664421   120.48975530   180.57715555
 H     23  12  11     1.078002348159   120.53094379     0.37087578
 H     24  23  12     1.080399837647   119.14466652   180.04449114
 H     25  24  23     1.080245098155   121.09190905   179.80805881
 H     26  16  15     1.080188019885   118.67129120     0.00000000
 H     27  26  16     1.080418289935   120.51308760   179.58785007
 H     28   5   4     1.077873584708   120.65042085   180.86345435
 H     29  18  17     1.080965942900   118.69215932     0.17123894
 H     30  29  18     1.080070735182   120.53840545   179.98646800
 H     31  30  29     1.080242715409   119.68195797   179.95916625
 H     32  31  30     1.078408518994   118.25299670   180.07975804

---------------------------
INTERNAL COORDINATES (A.U.)
---------------------------
 C      0   0   0     0.000000000000     0.00000000     0.00000000
 C      1   0   0     2.659476765759     0.00000000     0.00000000
 C      2   1   0     2.717029196484   120.33215338     0.00000000
 C      3   2   1     2.663176108274   119.81680693     0.88395460
 C      4   3   2     2.688089014210   121.13242639   359.87896447
 C      1   2   3     2.711255432917   120.35436756   359.69063422
 C      1   2   3     2.699336388547   119.94662526   179.50730234
 C      7   1   2     2.615404230368   118.52168859     0.86089874
 C      8   7   1     2.641225445694   122.47775436   359.53444291
 C      2   1   3     2.670693977344   120.65412288   180.05004402
 C     10   2   1     2.686473735530   121.85760349   179.77391220
 C     11  10   2     2.747476558813   118.93098608   359.11864280
 C      3   2   1     2.664981300210   119.91005382   180.83039852
 C     13   3   2     2.697990979135   119.47664138   179.57473657
 C     14  13   3     2.629621849866   119.56023275     0.76641132
 C     15  14  13     2.630037432893   121.60029826   359.72091162
 C      6   1   2     2.590578254142   118.85350000   178.71675543
 C     17   6   1     2.672109250380   123.07368493     0.67426618
 C     18  17   6     2.668335682278   119.80142470     0.14332052
 C      9   8   7     2.665217231089   120.70524901   179.75421709
 C     20   9   8     2.582032047163   120.15979714   179.96307163
 C     11  10   2     2.617858031325   118.61262881   179.04547871
 C     12  11  10     2.614607471421   122.42701352   181.46170340
 C     23  12  11     2.641034831742   121.89164781   180.29914605
 C     24  23  12     2.577719155810   120.32535403     0.12249431
 C     16  15  14     2.670529415634   120.93199641   179.49879439
 C     26  16  15     2.577848421130   120.19428948   180.22907632
 C      5   4   3     2.615108817939   118.58472709   178.72959221
 C     18  17   6     2.657166036954   120.32834806   180.01729031
 C     29  18  17     2.589796827638   120.84280373   180.19027736
 C     30  29  18     2.635742851958   119.51624296     0.03229653
 C     31  30  29     2.598644551598   120.52192462   359.93662807
 H      8   7   1     2.037893448772   120.55459374   179.56831224
 H     15  14  13     2.042880155017   119.20558215   179.63345544
 H     17   6   1     2.038261130463   120.80363653   180.79075236
 H     20   9   8     2.041554919212   118.86288347   359.82946219
 H     21  20   9     2.041625082185   120.47264656   179.72069782
 H     22  11  10     2.037122248488   120.48975530   180.57715555
 H     23  12  11     2.037129209744   120.53094379     0.37087578
 H     24  23  12     2.041659808287   119.14466652   180.04449114
 H     25  24  23     2.041367393024   121.09190905   179.80805881
 H     26  16  15     2.041259530725   118.67129120     0.00000000
 H     27  26  16     2.041694678058   120.51308760   179.58785007
 H     28   5   4     2.036885882086   120.65042085   180.86345435
 H     29  18  17     2.042729592177   118.69215932     0.17123894
 H     30  29  18     2.041037894757   120.53840545   179.98646800
 H     31  30  29     2.041362890286   119.68195797   179.95916625
 H     32  31  30     2.037896761387   118.25299670   180.07975804

---------------------
BASIS SET INFORMATION
---------------------
There are 2 groups of distinct atoms

 Group   1 Type C   : 15s8p3d2f1g contracted to 7s4p3d2f1g pattern {8211111/5111/111/11/1}
 Group   2 Type H   : 7s3p2d1f contracted to 4s3p2d1f pattern {4111/111/11/1}

Atom   0C    basis set group =>   1
Atom   1C    basis set group =>   1
Atom   2C    basis set group =>   1
Atom   3C    basis set group =>   1
Atom   4C    basis set group =>   1
Atom   5C    basis set group =>   1
Atom   6C    basis set group =>   1
Atom   7C    basis set group =>   1
Atom   8C    basis set group =>   1
Atom   9C    basis set group =>   1
Atom  10C    basis set group =>   1
Atom  11C    basis set group =>   1
Atom  12C    basis set group =>   1
Atom  13C    basis set group =>   1
Atom  14C    basis set group =>   1
Atom  15C    basis set group =>   1
Atom  16C    basis set group =>   1
Atom  17C    basis set group =>   1
Atom  18C    basis set group =>   1
Atom  19C    basis set group =>   1
Atom  20C    basis set group =>   1
Atom  21C    basis set group =>   1
Atom  22C    basis set group =>   1
Atom  23C    basis set group =>   1
Atom  24C    basis set group =>   1
Atom  25C    basis set group =>   1
Atom  26C    basis set group =>   1
Atom  27C    basis set group =>   1
Atom  28C    basis set group =>   1
Atom  29C    basis set group =>   1
Atom  30C    basis set group =>   1
Atom  31C    basis set group =>   1
Atom  32H    basis set group =>   2
Atom  33H    basis set group =>   2
Atom  34H    basis set group =>   2
Atom  35H    basis set group =>   2
Atom  36H    basis set group =>   2
Atom  37H    basis set group =>   2
Atom  38H    basis set group =>   2
Atom  39H    basis set group =>   2
Atom  40H    basis set group =>   2
Atom  41H    basis set group =>   2
Atom  42H    basis set group =>   2
Atom  43H    basis set group =>   2
Atom  44H    basis set group =>   2
Atom  45H    basis set group =>   2
Atom  46H    basis set group =>   2
Atom  47H    basis set group =>   2
---------------------------------
AUXILIARY/C BASIS SET INFORMATION
---------------------------------
There are 2 groups of distinct atoms

 Group   1 Type C   : 9s8p7d5f3g1h contracted to 9s8p7d5f3g1h pattern {111111111/11111111/1111111/11111/111/1}
 Group   2 Type H   : 6s4p3d2f1g contracted to 6s4p3d2f1g pattern {111111/1111/111/11/1}

Atom   0C    basis set group =>   1
Atom   1C    basis set group =>   1
Atom   2C    basis set group =>   1
Atom   3C    basis set group =>   1
Atom   4C    basis set group =>   1
Atom   5C    basis set group =>   1
Atom   6C    basis set group =>   1
Atom   7C    basis set group =>   1
Atom   8C    basis set group =>   1
Atom   9C    basis set group =>   1
Atom  10C    basis set group =>   1
Atom  11C    basis set group =>   1
Atom  12C    basis set group =>   1
Atom  13C    basis set group =>   1
Atom  14C    basis set group =>   1
Atom  15C    basis set group =>   1
Atom  16C    basis set group =>   1
Atom  17C    basis set group =>   1
Atom  18C    basis set group =>   1
Atom  19C    basis set group =>   1
Atom  20C    basis set group =>   1
Atom  21C    basis set group =>   1
Atom  22C    basis set group =>   1
Atom  23C    basis set group =>   1
Atom  24C    basis set group =>   1
Atom  25C    basis set group =>   1
Atom  26C    basis set group =>   1
Atom  27C    basis set group =>   1
Atom  28C    basis set group =>   1
Atom  29C    basis set group =>   1
Atom  30C    basis set group =>   1
Atom  31C    basis set group =>   1
Atom  32H    basis set group =>   2
Atom  33H    basis set group =>   2
Atom  34H    basis set group =>   2
Atom  35H    basis set group =>   2
Atom  36H    basis set group =>   2
Atom  37H    basis set group =>   2
Atom  38H    basis set group =>   2
Atom  39H    basis set group =>   2
Atom  40H    basis set group =>   2
Atom  41H    basis set group =>   2
Atom  42H    basis set group =>   2
Atom  43H    basis set group =>   2
Atom  44H    basis set group =>   2
Atom  45H    basis set group =>   2
Atom  46H    basis set group =>   2
Atom  47H    basis set group =>   2
----------------------------------
AUXILIARY/JK BASIS SET INFORMATION
----------------------------------
There are 2 groups of distinct atoms

 Group   1 Type C   : 9s8p7d5f3g1h contracted to 9s8p7d5f3g1h pattern {111111111/11111111/1111111/11111/111/1}
 Group   2 Type H   : 6s4p3d2f1g contracted to 6s4p3d2f1g pattern {111111/1111/111/11/1}

Atom   0C    basis set group =>   1
Atom   1C    basis set group =>   1
Atom   2C    basis set group =>   1
Atom   3C    basis set group =>   1
Atom   4C    basis set group =>   1
Atom   5C    basis set group =>   1
Atom   6C    basis set group =>   1
Atom   7C    basis set group =>   1
Atom   8C    basis set group =>   1
Atom   9C    basis set group =>   1
Atom  10C    basis set group =>   1
Atom  11C    basis set group =>   1
Atom  12C    basis set group =>   1
Atom  13C    basis set group =>   1
Atom  14C    basis set group =>   1
Atom  15C    basis set group =>   1
Atom  16C    basis set group =>   1
Atom  17C    basis set group =>   1
Atom  18C    basis set group =>   1
Atom  19C    basis set group =>   1
Atom  20C    basis set group =>   1
Atom  21C    basis set group =>   1
Atom  22C    basis set group =>   1
Atom  23C    basis set group =>   1
Atom  24C    basis set group =>   1
Atom  25C    basis set group =>   1
Atom  26C    basis set group =>   1
Atom  27C    basis set group =>   1
Atom  28C    basis set group =>   1
Atom  29C    basis set group =>   1
Atom  30C    basis set group =>   1
Atom  31C    basis set group =>   1
Atom  32H    basis set group =>   2
Atom  33H    basis set group =>   2
Atom  34H    basis set group =>   2
Atom  35H    basis set group =>   2
Atom  36H    basis set group =>   2
Atom  37H    basis set group =>   2
Atom  38H    basis set group =>   2
Atom  39H    basis set group =>   2
Atom  40H    basis set group =>   2
Atom  41H    basis set group =>   2
Atom  42H    basis set group =>   2
Atom  43H    basis set group =>   2
Atom  44H    basis set group =>   2
Atom  45H    basis set group =>   2
Atom  46H    basis set group =>   2
Atom  47H    basis set group =>   2


           ************************************************************
           *        Program running with 104 parallel MPI-processes   *
           *              working on a common directory               *
           ************************************************************
------------------------------------------------------------------------------
                             ORCA STARTUP CALCULATIONS
                           -- RI-GTO INTEGRALS CHOSEN --
------------------------------------------------------------------------------
------------------------------------------------------------------------------
                   ___                                                        
                  /   \      - P O W E R E D   B Y -                         
                 /     \                                                     
                 |  |  |   _    _      __       _____    __    __             
                 |  |  |  | |  | |    /  \     |  _  \  |  |  /  |          
                  \  \/   | |  | |   /    \    | | | |  |  | /  /          
                 / \  \   | |__| |  /  /\  \   | |_| |  |  |/  /          
                |  |  |   |  __  | /  /__\  \  |    /   |      \           
                |  |  |   | |  | | |   __   |  |    \   |  |\   \          
                \     /   | |  | | |  |  |  |  | |\  \  |  | \   \       
                 \___/    |_|  |_| |__|  |__|  |_| \__\ |__|  \__/        
                                                                              
                      - O R C A' S   B I G   F R I E N D -                    
                                      &                                       
                       - I N T E G R A L  F E E D E R -                       
                                                                              
 v1 FN, 2020, v2 2021, v3 2022-2024                                           
------------------------------------------------------------------------------


----------------------
SHARK INTEGRAL PACKAGE
----------------------

Number of atoms                             ...     48
Number of basis functions                   ...   2304
Number of shells                            ...    704
Maximum angular momentum                    ...      4
Integral batch strategy                     ... SHARK/LIBINT Hybrid
RI-J (if used) integral strategy            ... SPLIT-RIJ (Revised 2003 algorithm where possible)
Printlevel                                  ...      1
Contraction scheme used                     ... SEGMENTED contraction
Prescreening option                         ... SCHWARTZ
   Thresh                                   ... 1.000e-10
   Tcut                                     ... 1.000e-11
   Tpresel                                  ... 1.000e-11 
Coulomb Range Separation                    ... NOT USED
Exchange Range Separation                   ... NOT USED
Multipole approximations                    ... NOT USED
Finite Nucleus Model                        ... NOT USED
CABS basis                                  ... NOT available
Auxiliary Coulomb fitting basis             ... NOT available
Auxiliary J/K fitting basis                 ... AVAILABLE
   # of basis functions in Aux-JK           ...   5408
   # of shells in Aux-JK                    ...   1312
   Maximum angular momentum in Aux-JK       ...      5
Auxiliary Correlation fitting basis         ... AVAILABLE
   # of basis functions in Aux-C            ...   5408
   # of shells in Aux-C                     ...   1312
   Maximum angular momentum in Aux-C        ...      5
Auxiliary 'external' fitting basis          ... NOT available

Checking pre-screening integrals            ... done (  0.0 sec) Dimension = 704
Check shell pair data                       ... done (  0.0 sec)
Shell pair information
Shell pair cut-off parameter TPreSel        ...   1.0e-11
Total number of shell pairs                 ...    248160
Shell pairs after pre-screening             ...    133937
Total number of primitive shell pairs       ...    647160
Primitive shell pairs kept                  ...    235204
          la=0 lb=0:  20086 shell pairs
          la=1 lb=0:  30553 shell pairs
          la=1 lb=1:  10770 shell pairs
          la=2 lb=0:  17997 shell pairs
          la=2 lb=1:  13784 shell pairs
          la=2 lb=2:   4297 shell pairs
          la=3 lb=0:  10783 shell pairs
          la=3 lb=1:   8239 shell pairs
          la=3 lb=2:   4879 shell pairs
          la=3 lb=3:   1458 shell pairs
          la=4 lb=0:   4318 shell pairs
          la=4 lb=1:   3367 shell pairs
          la=4 lb=2:   1989 shell pairs
          la=4 lb=3:   1159 shell pairs
          la=4 lb=4:    258 shell pairs

Calculating one electron integrals          ... done (  0.9 sec)
Calculating RI/JK V-Matrix + Cholesky decomp... done (  1.8 sec)
Calculating RI/C V-Matrix + Cholesky decomp.... done (  1.8 sec)
Calculating Nuclear repulsion               ... done (  0.0 sec) ENN=   2846.097601802146 Eh

Diagonalization of the overlap matrix:
Smallest eigenvalue                        ... 4.156e-08
Time for diagonalization                   ...    0.935 sec
Threshold for overlap eigenvalues          ... 1.000e-07
Number of eigenvalues below threshold      ... 2
Smallest eigenvalue above threshold        ... 6.502e-07

IMPORTANT:
Smallest eigenvalue of S below the DiffSThresh (1.000e-06) while
Thresh>1e-12 and/or TCut>1e-13! In order to avoid SCF convergence issues,
Thresh will be set to at least 1e-12 and TCut to at least 1e-13.
This can be turned off by adding %SCF DiffSThresh -1 END to the input.

Time for construction of square roots      ...    0.621 sec
Total time needed                          ...    1.622 sec

-------------------
DFT GRID GENERATION
-------------------

General Integration Accuracy     IntAcc      ... 4.959
Radial Grid Type                 RadialGrid  ... OptM3 with GC (2021)
Angular Grid (max. ang.)         AngularGrid ... 6 (Lebedev-590)
Angular grid pruning method      GridPruning ... 4 (adaptive)
Weight generation scheme         WeightScheme... mBecke (2022)
Basis function cutoff            BFCut       ... 1.0000e-10
Integration weight cutoff        WCut        ... 1.0000e-14
Partially contracted basis set               ... off
Rotationally invariant grid construction     ... off
Angular grids for H and He will be reduced by one unit
Diffuse basis detected: some atoms will have their outermost
                        angular grid increased by 1.

Total number of grid points                  ...   597663
Total number of batches                      ...     9361
Average number of points per batch           ...       63
Average number of grid points per atom       ...    12451
Initializing property integral containers    ... done (  0.1 sec)

SHARK setup successfully completed in  15.1 seconds

Maximum memory used throughout the entire STARTUP-calculation: 268.1 MB


           ************************************************************
           *        Program running with 104 parallel MPI-processes   *
           *              working on a common directory               *
           ************************************************************
-------------------------------------------------------------------------------
                                 ORCA GUESS
                   Start orbitals & Density for SCF / CASSCF
-------------------------------------------------------------------------------

------------
SCF SETTINGS
------------
Hamiltonian:
 Density Functional     Method          .... DFT(GTOs)
 Exchange Functional    Exchange        .... PBE
   PBE kappa parameter   XKappa         ....  0.804000
   PBE mue parameter    XMuePBE         ....  0.219520
 Correlation Functional Correlation     .... P86
 LDA part of GGA corr.  LDAOpt          .... VWN-5
 Gradients option       PostSCFGGA      .... off
 Hybrid DFT is turned on
   Fraction HF Exchange ScalHFX         ....  0.690000
   Scaling of DF-GGA-X  ScalDFX         ....  0.310000
   Scaling of DF-GGA-C  ScalDFC         ....  0.403800
   Scaling of DF-LDA-C  ScalLDAC        ....  0.403800
   Perturbative correction              ....  1.000000
 RI-approximation to the Coulomb term is turned on
   Number of AuxJK basis functions      .... 5408
   RI-JK (J+K treated both via RI)      .... on


General Settings:
 Integral files         IntName         .... compas3x_hc_c32h16_0pent_3_qz_riri
 Hartree-Fock type      HFTyp           .... RHF
 Total Charge           Charge          ....    0
 Multiplicity           Mult            ....    1
 Number of Electrons    NEL             ....  208
 Basis Dimension        Dim             .... 2304
 Nuclear Repulsion      ENuc            ....   2846.0976018021 Eh

Convergence Acceleration:
 AO-DIIS                CNVDIIS         .... on
   Start iteration      DIISMaxIt       ....    12
   Startup error        DIISStart       ....  0.200000
   # of expansion vecs  DIISMaxEq       ....     5
   Bias factor          DIISBfac        ....   1.050
   Max. coefficient     DIISMaxC        ....  10.000
 MO-DIIS                CNVKDIIS        .... off
 Trust-Rad. Augm. Hess. CNVTRAH         .... auto
   Auto Start mean grad. ratio tolernc. ....  1.125000
   Auto Start start iteration           ....    50
   Auto Start num. interpolation iter.  ....    10
   Max. Number of Micro iterations      ....    24
   Max. Number of Macro iterations      .... Maxiter - #DIIS iter
   Number of Davidson start vectors     ....     2
   Converg. threshold    (grad. norm)   ....   5.000e-05
   Grad. Scal. Fac. for Micro threshold ....   0.100
   Minimum threshold for Micro iter.    ....   1.000e-02
   NR start threshold (gradient norm)   ....   1.000e-04
   Initial trust radius                 ....   0.400
   Minimum AH scaling param. (alpha)    ....   1.000
   Maximum AH scaling param. (alpha)    .... 1000.000
   Quad. conv. algorithm                .... NR
   White noise on init. David. guess    .... on
   Maximum white noise                  ....   0.010
   Pseudo random numbers                .... off
   Inactive MOs                         .... canonical
   Orbital update algorithm             .... Taylor
   Preconditioner                       .... Diag
   Full preconditioner red. dimension   ....   250
 SOSCF                  CNVSOSCF        .... on
   Start iteration      SOSCFMaxIt      ....   150
   Startup grad/error   SOSCFStart      ....  0.003300
   Hessian update       SOSCFHessUp     .... L-BFGS
 Level Shifting         CNVShift        .... on
   Level shift para.    LevelShift      ....    0.2500
   Turn off err/grad.   ShiftErr        ....    0.0010
 Zerner damping         CNVZerner       .... off
 Static damping         CNVDamp         .... on
   Fraction old density DampFac         ....    0.7000
   Max. Damping (<1)    DampMax         ....    0.9800
   Min. Damping (>=0)   DampMin         ....    0.0000
   Turn off err/grad.   DampErr         ....    0.1000

SCF Procedure:
 Maximum # iterations   MaxIter         ....   125
 SCF integral mode      SCFMode         .... Direct
   Integral package                     .... SHARK and LIBINT hybrid scheme
 Reset frequency        DirectResetFreq ....    20
 Integral Threshold     Thresh          ....  1.000e-12 Eh
 Primitive CutOff       TCut            ....  1.000e-13 Eh

Convergence Tolerance:
 Convergence Check Mode ConvCheckMode   .... Total+1el-Energy
 Convergence forced     ConvForced      .... 0
 Energy Change          TolE            ....  1.000e-06 Eh
 1-El. energy change                    ....  1.000e-03 Eh
 Orbital Gradient       TolG            ....  5.000e-05
 Orbital Rotation angle TolX            ....  5.000e-05
 DIIS Error             TolErr          ....  1.000e-06

------------------------------
INITIAL GUESS: MODEL POTENTIAL
------------------------------
Loading Hartree-Fock densities                     ... done
Calculating cut-offs                               ... done
Initializing the effective Hamiltonian             ... done
Setting up the integral package (SHARK)            ... done
Starting the Coulomb interaction                   ... done (   0.7 sec)
Making the grid                                    ... done (   0.5 sec)
Mapping shells                                     ... done
Starting the XC term evaluation                    ... done (   0.2 sec)
  promolecular density results
     # of electrons  =    207.971600041
     EX              =   -168.659407028
     EC              =      0.248686247
     EX+EC           =   -168.410720780
Transforming the Hamiltonian                       ... done (   0.5 sec)
Diagonalizing the Hamiltonian                      ... done (   0.7 sec)
Back transforming the eigenvectors                 ... done (   0.3 sec)
Now organizing SCF variables                       ... done
                      ------------------
                      INITIAL GUESS DONE (   3.6 sec)
                      ------------------
             **** ENERGY FILE WAS UPDATED (compas3x_hc_c32h16_0pent_3_qz_riri.en.tmp) ****
Finished Guess after  21.5 sec
Maximum memory used throughout the entire GUESS-calculation: 298.4 MB


           ************************************************************
           *        Program running with 104 parallel MPI-processes   *
           *              working on a common directory               *
           ************************************************************

-------------------------------------------------------------------------------------------
                                      ORCA LEAN-SCF
                              memory conserving SCF solver
-------------------------------------------------------------------------------------------

----------------------------------------D-I-I-S--------------------------------------------
Iteration    Energy (Eh)           Delta-E    RMSDP     MaxDP     DIISErr   Damp  Time(sec)
-------------------------------------------------------------------------------------------
    1    -1223.8687290986754306     0.00e+00  2.62e-04  3.00e-02  1.54e-01  0.700  27.3
    2    -1223.6543397661362178     2.14e-01  2.30e-04  2.17e-02  1.36e-01  0.700  29.0
                               ***Turning on AO-DIIS***
    3    -1223.7924929481760046    -1.38e-01  1.89e-04  3.33e-02  8.05e-02  0.700  27.9
    4    -1224.0582152076704006    -2.66e-01  4.38e-04  9.29e-02  4.07e-02  0.000  28.0
    5    -1224.4926479623040905    -4.34e-01  9.11e-05  1.09e-02  3.66e-02  0.000  27.7
    6    -1224.5110303945284613    -1.84e-02  5.88e-05  8.57e-03  1.64e-02  0.000  29.2
    7    -1224.5155371524397196    -4.51e-03  2.41e-05  4.09e-03  5.43e-03  0.000  28.4
                              *** Initializing SOSCF ***
---------------------------------------S-O-S-C-F--------------------------------------
Iteration    Energy (Eh)           Delta-E    RMSDP     MaxDP     MaxGrad    Time(sec)
--------------------------------------------------------------------------------------
    8    -1224.5160822289290081    -5.45e-04  9.74e-06  1.93e-03  1.29e-03    30.7
    9    -1224.5161333602709419    -5.11e-05  6.11e-06  6.08e-04  4.48e-04    28.1
   10    -1224.5161442313492444    -1.09e-05  5.24e-06  8.62e-04  2.95e-04    27.5
   11    -1224.5161463824506427    -2.15e-06  1.88e-06  2.69e-04  1.88e-04    27.5
   12    -1224.5161474509295658    -1.07e-06  9.34e-07  1.35e-04  3.92e-05    27.5
   13    -1224.5161475174986663    -6.66e-08  2.99e-07  5.31e-05  1.76e-05    26.9
                 **** Energy Check signals convergence ****

               *****************************************************
               *                     SUCCESS                       *
               *           SCF CONVERGED AFTER  13 CYCLES          *
               *****************************************************

             **** ENERGY FILE WAS UPDATED (compas3x_hc_c32h16_0pent_3_qz_riri.en.tmp) ****

----------------
TOTAL SCF ENERGY
----------------

Total Energy       :      -1224.51614751749867 Eh          -33320.77837 eV

Components:
Nuclear Repulsion  :       2846.09760180214562 Eh           77446.25304 eV
Electronic Energy  :      -4070.61374931964428 Eh         -110767.03141 eV
One Electron Energy:      -7317.71792242789979 Eh         -199125.22800 eV
Two Electron Energy:       3247.10417310825551 Eh           88358.19659 eV

Virial components:
Potential Energy   :      -2446.37742602016078 Eh          -66569.31408 eV
Kinetic Energy     :       1221.86127850266212 Eh           33248.53571 eV
Virial Ratio       :          2.00217280722578

DFT components:
N(Alpha)           :      104.000011807730 electrons
N(Beta)            :      104.000011807730 electrons
N(Total)           :      208.000023615461 electrons
E(X)               :      -53.147503199940 Eh       
E(C)               :       -3.116481528122 Eh       
E(XC)              :      -56.263984728062 Eh       

---------------
SCF CONVERGENCE
---------------

  Last Energy change         ...    6.6569e-08  Tolerance :   1.0000e-06
  Last MAX-Density change    ...    5.3104e-05  Tolerance :   1.0000e-05
  Last RMS-Density change    ...    2.9855e-07  Tolerance :   1.0000e-06
  Last DIIS Error            ...    1.2857e-03  Tolerance :   1.0000e-06
  Last Orbital Gradient      ...    1.7589e-05  Tolerance :   5.0000e-05
  Last Orbital Rotation      ...    7.4092e-05  Tolerance :   5.0000e-05


----------------
ORBITAL ENERGIES
----------------

  NO   OCC          E(Eh)            E(eV) 
   0   2.0000     -10.837711      -294.9091 
   1   2.0000     -10.837307      -294.8981 
   2   2.0000     -10.837115      -294.8929 
   3   2.0000     -10.836989      -294.8895 
   4   2.0000     -10.836833      -294.8852 
   5   2.0000     -10.836496      -294.8760 
   6   2.0000     -10.836320      -294.8713 
   7   2.0000     -10.836089      -294.8650 
   8   2.0000     -10.834313      -294.8167 
   9   2.0000     -10.833950      -294.8068 
  10   2.0000     -10.833947      -294.8067 
  11   2.0000     -10.833502      -294.7946 
  12   2.0000     -10.832109      -294.7567 
  13   2.0000     -10.832068      -294.7556 
  14   2.0000     -10.831730      -294.7464 
  15   2.0000     -10.830960      -294.7254 
  16   2.0000     -10.823509      -294.5227 
  17   2.0000     -10.823419      -294.5202 
  18   2.0000     -10.823384      -294.5192 
  19   2.0000     -10.823130      -294.5123 
  20   2.0000     -10.823120      -294.5121 
  21   2.0000     -10.823067      -294.5106 
  22   2.0000     -10.822645      -294.4991 
  23   2.0000     -10.822577      -294.4973 
  24   2.0000     -10.822529      -294.4960 
  25   2.0000     -10.822365      -294.4915 
  26   2.0000     -10.822312      -294.4901 
  27   2.0000     -10.822075      -294.4836 
  28   2.0000     -10.821980      -294.4811 
  29   2.0000     -10.821827      -294.4769 
  30   2.0000     -10.821590      -294.4704 
  31   2.0000     -10.821226      -294.4605 
  32   2.0000      -1.107605       -30.1395 
  33   2.0000      -1.078004       -29.3340 
  34   2.0000      -1.069951       -29.1148 
  35   2.0000      -1.050966       -28.5982 
  36   2.0000      -1.024998       -27.8916 
  37   2.0000      -1.005038       -27.3485 
  38   2.0000      -1.000833       -27.2341 
  39   2.0000      -0.977423       -26.5970 
  40   2.0000      -0.958650       -26.0862 
  41   2.0000      -0.943996       -25.6874 
  42   2.0000      -0.928423       -25.2637 
  43   2.0000      -0.917812       -24.9749 
  44   2.0000      -0.908730       -24.7278 
  45   2.0000      -0.899174       -24.4678 
  46   2.0000      -0.888355       -24.1734 
  47   2.0000      -0.840963       -22.8838 
  48   2.0000      -0.818267       -22.2662 
  49   2.0000      -0.796755       -21.6808 
  50   2.0000      -0.787172       -21.4200 
  51   2.0000      -0.780156       -21.2291 
  52   2.0000      -0.771362       -20.9898 
  53   2.0000      -0.748881       -20.3781 
  54   2.0000      -0.737821       -20.0771 
  55   2.0000      -0.713669       -19.4199 
  56   2.0000      -0.700681       -19.0665 
  57   2.0000      -0.681781       -18.5522 
  58   2.0000      -0.663612       -18.0578 
  59   2.0000      -0.658800       -17.9269 
  60   2.0000      -0.654254       -17.8032 
  61   2.0000      -0.628715       -17.1082 
  62   2.0000      -0.620309       -16.8795 
  63   2.0000      -0.610568       -16.6144 
  64   2.0000      -0.595094       -16.1933 
  65   2.0000      -0.588993       -16.0273 
  66   2.0000      -0.582232       -15.8433 
  67   2.0000      -0.570891       -15.5347 
  68   2.0000      -0.566922       -15.4267 
  69   2.0000      -0.557160       -15.1611 
  70   2.0000      -0.550416       -14.9776 
  71   2.0000      -0.540980       -14.7208 
  72   2.0000      -0.533176       -14.5084 
  73   2.0000      -0.531604       -14.4657 
  74   2.0000      -0.530173       -14.4267 
  75   2.0000      -0.528639       -14.3850 
  76   2.0000      -0.520409       -14.1611 
  77   2.0000      -0.506663       -13.7870 
  78   2.0000      -0.499958       -13.6046 
  79   2.0000      -0.497268       -13.5313 
  80   2.0000      -0.496329       -13.5058 
  81   2.0000      -0.487152       -13.2561 
  82   2.0000      -0.486269       -13.2321 
  83   2.0000      -0.471600       -12.8329 
  84   2.0000      -0.464796       -12.6477 
  85   2.0000      -0.462408       -12.5828 
  86   2.0000      -0.459112       -12.4931 
  87   2.0000      -0.448357       -12.2004 
  88   2.0000      -0.442320       -12.0361 
  89   2.0000      -0.432892       -11.7796 
  90   2.0000      -0.430013       -11.7013 
  91   2.0000      -0.410310       -11.1651 
  92   2.0000      -0.409231       -11.1357 
  93   2.0000      -0.402341       -10.9483 
  94   2.0000      -0.400565       -10.8999 
  95   2.0000      -0.373503       -10.1635 
  96   2.0000      -0.349204        -9.5023 
  97   2.0000      -0.338198        -9.2028 
  98   2.0000      -0.321418        -8.7462 
  99   2.0000      -0.298237        -8.1155 
 100   2.0000      -0.290191        -7.8965 
 101   2.0000      -0.282907        -7.6983 
 102   2.0000      -0.266185        -7.2433 
 103   2.0000      -0.195697        -5.3252 
 104   0.0000      -0.044786        -1.2187 
 105   0.0000       0.017464         0.4752 
 106   0.0000       0.035020         0.9529 
 107   0.0000       0.041224         1.1218 
 108   0.0000       0.051551         1.4028 
 109   0.0000       0.063015         1.7147 
 110   0.0000       0.072462         1.9718 
 111   0.0000       0.076179         2.0729 
 112   0.0000       0.077925         2.1204 
 113   0.0000       0.084108         2.2887 
 114   0.0000       0.086933         2.3656 
*Only the first 10 virtual orbitals were printed.
-------
TIMINGS
-------

Total SCF time: 0 days 0 hours 6 min 25 sec 

Total time                  ....     385.607 sec
Sum of individual times     ....     384.931 sec  ( 99.8%)

SCF preparation             ....      16.880 sec  (  4.4%)
Fock matrix formation       ....     321.820 sec  ( 83.5%)
  Startup                   ....       3.853 sec  (  1.2% of F)
  RI-JK                     ....     289.392 sec  ( 89.9% of F)
  XC integration            ....      19.540 sec  (  6.1% of F)
    XC Preparation          ....       0.000 sec  (  0.0% of XC)
    Basis function eval.    ....       1.444 sec  (  7.4% of XC)
    Density eval.           ....       4.032 sec  ( 20.6% of XC)
    XC-Functional eval.     ....       0.041 sec  (  0.2% of XC)
    XC-Potential eval.      ....       5.380 sec  ( 27.5% of XC)
Diagonalization             ....       0.000 sec  (  0.0%)
Density matrix formation    ....       6.331 sec  (  1.6%)
Total Energy calculation    ....       3.185 sec  (  0.8%)
Population analysis         ....       0.000 sec  (  0.0%)
Orbital Transformation      ....       3.963 sec  (  1.0%)
Orbital Orthonormalization  ....       0.000 sec  (  0.0%)
DIIS solution               ....      24.038 sec  (  6.2%)
SOSCF solution              ....       8.481 sec  (  2.2%)
Finished LeanSCF after 386.5 sec

Maximum memory used throughout the entire LEANSCF-calculation: 975.5 MB


           ************************************************************
           *        Program running with 104 parallel MPI-processes   *
           *              working on a common directory               *
           ************************************************************

------------------------------------------------------------------------------
                                ORCA  MP2 
------------------------------------------------------------------------------


-------------
RI-MP2 ENERGY
-------------
Dimension of the orbital basis            ... 2304
Dimension of the AuxC basis               ... 5408
Memory devoted to MP2                     ... 4096 MB   
Data format for matrix containers         ... DOUBLE
Compression type for matrix containers    ... UNCOMPRESSED
Scaling for aa/bb pairs                   ...   5.710e-02
Scaling for ab pairs                      ...   5.979e-01
Overall scaling of the MP2 energy         ...   1.000e+00

-----------------------
SHARK RI TRANSFORMATION
-----------------------

Number of basis functions                ...   2304
Number of aux functions                  ...   5408
Number of operators                      ...      1
Generation of IJK                        ... NO
Generation of IAK                        ... YES
Generation of ABK                        ... NO
Orbital Range Operator  0:    0- 103 to  104-2303

Aux basis identifier                     ...   AUXC
Contraction scheme used                  ... SEGMENTED
Do orthogonalization                     ... YES
All operator combinations                ... NO
Transpose (ia|K)                         ... NO
Integral generator used                  ... LIBINT
Starting integral generation + trafo... 
Half trafo (segmented) done. Total time = 12.2 sec. integrals=  2.3 sec trafo=  9.2 sec
Integral generation and half transformation done ( 12.2 sec)

Reading or making V^(-1/2)          ... done (  0.5 sec)
Sorting IAK integrals               ... done ( 10.3 sec)

SHARK RI integral transformation done. Total time = 23.2 sec.

Opening buffers                              ... done

Starting loop over batches of integrals:

Operator 0  - window                       ... (  0-103)x(104-2303)
Operator 0  - Memory available             ...  4096 MB
Operator 0  - Memory needed per MO         ...  90.8 MB
Operator 0  - Number of orbitals per batch ... 1
Operator 0  - Number of batches            ... 1

OPERATOR  0   PASS   0:  MOs     0 ...    0 +    1 ...    1 +    2 ...    2 +    3 ...    3
                            +    4 ...    4 +    5 ...    5 +    6 ...    6 +    7 ...    7
                            +    8 ...    8 +    9 ...    9 +   10 ...   10 +   11 ...   11
                            +   12 ...   12 +   13 ...   13 +   14 ...   14 +   15 ...   15
                            +   16 ...   16 +   17 ...   17 +   18 ...   18 +   19 ...   19
                            +   20 ...   20 +   21 ...   21 +   22 ...   22 +   23 ...   23
                            +   24 ...   24 +   25 ...   25 +   26 ...   26 +   27 ...   27
                            +   28 ...   28 +   29 ...   29 +   30 ...   30 +   31 ...   31
                            +   32 ...   32 +   33 ...   33 +   34 ...   34 +   35 ...   35
                            +   36 ...   36 +   37 ...   37 +   38 ...   38 +   39 ...   39
                            +   40 ...   40 +   41 ...   41 +   42 ...   42 +   43 ...   43
                            +   44 ...   44 +   45 ...   45 +   46 ...   46 +   47 ...   47
                            +   48 ...   48 +   49 ...   49 +   50 ...   50 +   51 ...   51
                            +   52 ...   52 +   53 ...   53 +   54 ...   54 +   55 ...   55
                            +   56 ...   56 +   57 ...   57 +   58 ...   58 +   59 ...   59
                            +   60 ...   60 +   61 ...   61 +   62 ...   62 +   63 ...   63
                            +   64 ...   64 +   65 ...   65 +   66 ...   66 +   67 ...   67
                            +   68 ...   68 +   69 ...   69 +   70 ...   70 +   71 ...   71
                            +   72 ...   72 +   73 ...   73 +   74 ...   74 +   75 ...   75
                            +   76 ...   76 +   77 ...   77 +   78 ...   78 +   79 ...   79
                            +   80 ...   80 +   81 ...   81 +   82 ...   82 +   83 ...   83
                            +   84 ...   84 +   85 ...   85 +   86 ...   86 +   87 ...   87
                            +   88 ...   88 +   89 ...   89 +   90 ...   90 +   91 ...   91
                            +   92 ...   92 +   93 ...   93 +   94 ...   94 +   95 ...   95
                            +   96 ...   96 +   97 ...   97 +   98 ...   98 +   99 ...   99
                            +  100 ...  100 +  101 ...  101 +  102 ...  102 +  103 ...  103
  Reading integrals       ... ok
Time spent in pair loops =   115.295 sec

-----------------------------------------------
 RI-MP2 CORRELATION ENERGY:     -3.138423079 Eh
-----------------------------------------------


-------
TIMINGS
-------

Total time                :  143.712 sec
Integral trafo            :   23.655 sec ( 16.5%)
I/O of integrals          :    0.119 sec (  0.1%)
K(i,j) operators          :    0.937 sec (  0.7%)
T(i,j) pair energies      :    0.123 sec (  0.1%)
V**(-1/2)                 :    4.760 sec (  3.3%)


---------------------------------------
MP2 TOTAL ENERGY:    -1227.654570596 Eh
---------------------------------------

Maximum memory used throughout the entire MP2-calculation: 642.6 MB


-------------------------------------------------------------------------------
                          DFT DISPERSION CORRECTION                            
                                                                               
                                DFTD4 V3.4.0                                   
-------------------------------------------------------------------------------
The REV-DSD-PBEP86-2021 functional is recognized
A user input s6-coefficient scaling factor has been recognized
A user input a1-coefficient scaling factor has been recognized
A user input s8-coefficient scaling factor has been recognized
A user input a2-coefficient scaling factor has been recognized
A user input s9-coefficient scaling factor has been recognized
Active option DFTDOPT                   ...         5   

-------------------------   ----------------
Dispersion correction           -0.053719647
-------------------------   ----------------


-------------------------   --------------------
FINAL SINGLE POINT ENERGY     -1227.708290243270
-------------------------   --------------------



           ************************************************************
           *        Program running with 104 parallel MPI-processes   *
           *              working on a common directory               *
           ************************************************************

------------------------------------------------------------------------------
                              ORCA PROPERTY CALCULATIONS
------------------------------------------------------------------------------

GBWName                                 ... compas3x_hc_c32h16_0pent_3_qz_riri.gbw
Number of atoms                         ...     48
Number of basis functions               ...   2304
Max core memory                         ...   1024 MB

Electric properties:
Dipole moment                           ... YES
Quadrupole moment                       ...  NO
Static polarizability (Dipole/Dipole)   ...  NO
Static polarizability (Dipole/Quad.)    ...  NO
Static polarizability (Quad./Quad.)     ...  NO
Static polarizability (Velocity)        ...  NO

Atomic electric properties:
Dipole moment                           ...  NO
Quadrupole moment                       ...  NO
Static polarizability                   ...  NO

Choice of electric origin               ... Center of mass
Position of electric origin             ...    -0.062517     0.109721    -0.002070

General magnetic properties:
Magnetizability                         ...  NO

EPR properties:
g-Tensor (aka g-matrix)                 ...  NO
Zero-Field splitting spin-orbit         ...  NO
Zero-field splitting spin-spin          ...  NO
Hyperfine couplings                     ...  NO (   0 nuclei)
Quadrupole couplings                    ...  NO (   0 nuclei)
Contact density                         ...  NO (   0 nuclei)

NMR properties:
Chemical shifts                         ...  NO (   0 nuclei)
Spin-rotation constants                 ...  NO (   0 nuclei)
Spin-spin couplings                     ...  NO (   0 nuclei,    0 pairs)

Choice of magnetic origin               ... GIAO
Position of magnetic origin             ...     0.000000     0.000000     0.000000

Properties with geometric perturbations:
SCF Hessian                             ...  NO
IR spectrum                             ...  NO
VCD spectrum                            ...  NO
X-ray spectroscopy properties:
SCF XES/XAS/RIXS spectra                ...  NO


-------------
DIPOLE MOMENT
-------------

Method             : SCF
Type of density    : Electron Density
Multiplicity       :   1
Irrep              :   0
Energy             : -1224.5161475174986663 Eh
Relativity type    : 
Basis              : AO
                                X                 Y                 Z
Electronic contribution:     -1.625691618       2.831197442      -0.049967191
Nuclear contribution   :      1.627285058      -2.856256193       0.051790677
                        -----------------------------------------
Total Dipole Moment    :      0.001593440      -0.025058752       0.001823486
                        -----------------------------------------
Magnitude (a.u.)       :      0.025175488
Magnitude (Debye)      :      0.063991004



--------------------
Rotational spectrum 
--------------------
 
Rotational constants in cm-1:             0.007597             0.004303             0.002748 
Rotational constants in MHz :           227.760793           129.002108            82.374416 

Dipole components along the rotational axes: 
x,y,z [a.u.] :    -0.020692    -0.014221     0.001846 
x,y,z [Debye]:    -0.052596    -0.036146     0.004691 

 

Dipole moment calculation done in   0.4 sec 

Maximum memory used throughout the entire PROP-calculation: 339.3 MB

--------------------------------
SUGGESTED CITATIONS FOR THIS RUN
--------------------------------

Below you find a list of papers that are relevant to this ORCA run
We neither can nor want to force you to cite these papers, but we appreciate if you do
You receive ORCA, which is the product of decades of hard work by many enthusiastic individuals, for free
The only thing we kindly ask in return is that you cite our papers,
We deeply appreciate it, if you show your appreciation for ORCA by not just citing the generic ORCA reference.

Please note that relegating all ORCA citations to the supporting information does *not* help us.
SI sections are not indexed - citations you put there will not count into any citation statistics
But we need these citations in order to attract the funding resources that allow us to do what we are doing

Therefore, if you are a happy ORCA user, please consider citing a few of the papers listed below in the main body of your paper

In addition to the list printed below, the program has created the file compas3x_hc_c32h16_0pent_3_qz_riri.bibtex that contains the list in bibtex format
You can import this file easily into all common literature databanks and citation aid programs


List of essential papers. We consider these as the minimum necessary citations

  1. Neese,F.
     Software update: the ORCA program system, version 5.0
     WIRES Comput. Molec. Sci., 2022 12(1)e1606
     doi.org/10.1002/wcms.1606

List of papers to cite with high priority. The work reported in these papers was absolutely
necessary for this run to complete.
Our perspective: the developers of density functionals and basis sets usually get cited in chemistry papers
Good! But without the algorithms to do something with them, the functionals or basis sets would not do anything.
Hence, in our opinion, the algorithm design and method developments papers are equally worthy of getting cited

  1. Neese,F.
     An improvement of the resolution of the identity approximation for the formation of the Coulomb matrix
     J. Comp. Chem., 2003 24(14)1740-1747
     doi.org/10.1002/jcc.10318
  2. Kossmann,S.; Neese,F.
     Comparison of two efficient approximate Hartee-Fock approaches
     Chem. Phys. Lett., 2009 481 240-243
     doi.org/10.1016/j.cplett.2009.09.073
  3. Neese,F.
     The SHARK Integral Generation and Digestion System
     J. Comp. Chem., 2022  1-16
     doi.org/10.1002/jcc.26942
  4. Caldeweyher,E.; Bannwarth,C.; Grimme,S.
     Extension of the D3 dispersion coefficient model
     J. Chem. Phys., 2017 147 034112
     doi.org/10.1063/1.4993215
  5. Caldeweyher,E.; Ehlert,S.; Hansen,A.; Neugebauer,H.; Spicher,S.; Bannwarth,C.; Grimme,S.
     A generally applicable atomic-charge dependent London dispersion correction
     J. Chem. Phys., 2019 150 154122
     doi.org/10.1063/1.5090222
  6. Caldeweyher,E.; Mewes,J.; Ehlert,S.; Grimme,S.
     Extension and evaluation of the D4 London-dispersion model for periodic systems
     Phys. Chem. Chem. Phys., 2020 22(16)8499-8512
     doi.org/10.1039/D0CP00502A
  7. Wittmann,L.; Gordiy,I.; Friede,M.; Helmich-Paris,B.; Grimme,S.; Hansen,A.; Bursch,M.
     Extension of the D3 and D4 London Dispersion Corrections to the full Actinides Series
     Phys. Chem. Chem. Phys., 2024 26(32)21379-21394
     doi.org/https://doi.org/10.1039/D4CP01514B 

List of suggested additional citations. These are papers that are important in the 'surrounding' of 
of this run, or papers that preceded the highly important papers. If you like your results we are grateful for a citation.

  1. Neese,F.
     The ORCA program system
     WIRES Comput. Molec. Sci., 2012 2(1)73-78
     doi.org/10.1002/wcms.81
  2. Neese,F.
     Software update: the ORCA program system, version 4.0
     WIRES Comput. Molec. Sci., 2018 8(1)1-6
     doi.org/10.1002/wcms.1327
  3. Neese,F.; Wennmohs,F.; Becker,U.; Riplinger,C.
     The ORCA quantum chemistry program package
     J. Chem. Phys., 2020 152 Art. No. L224108
     doi.org/10.1063/5.0004608

List of optional additional citations

  1. Neese,F.
     Approximate second-order SCF convergence for spin unrestricted wavefunctions
     Chem. Phys. Lett., 2000 325(1-3)93-98
     doi.org/10.1016/s0009-2614(00)00662-x

Timings for individual modules:

Sum of individual times          ...      623.631 sec (=  10.394 min)
Startup calculation              ...       31.385 sec (=   0.523 min)   5.0 %
SCF iterations                   ...      410.718 sec (=   6.845 min)  65.9 %
Property calculations            ...       18.097 sec (=   0.302 min)   2.9 %
MP2 module                       ...      163.431 sec (=   2.724 min)  26.2 %
                             ****ORCA TERMINATED NORMALLY****
TOTAL RUN TIME: 0 days 0 hours 10 minutes 53 seconds 580 msec
