
                                 *****************
                                 * O   R   C   A *
                                 *****************

                                            #,                                       
                                            ###                                      
                                            ####                                     
                                            #####                                    
                                            ######                                   
                                           ########,                                 
                                     ,,################,,,,,                         
                               ,,#################################,,                 
                          ,,##########################################,,             
                       ,#########################################, ''#####,          
                    ,#############################################,,   '####,        
                  ,##################################################,,,,####,       
                ,###########''''           ''''###############################       
              ,#####''   ,,,,##########,,,,          '''####'''          '####       
            ,##' ,,,,###########################,,,                        '##       
           ' ,,###''''                  '''############,,,                           
         ,,##''                                '''############,,,,        ,,,,,,###''
      ,#''                                            '''#######################'''  
     '                                                          ''''####''''         
             ,#######,   #######,   ,#######,      ##                                
            ,#'     '#,  ##    ##  ,#'     '#,    #''#        ,####,   ,####,        
            ##       ##  ##   ,#'  ##            #'  '#       #'       #'  '#        
            ##       ##  #######   ##           ,######,      #####,   #    #        
            '#,     ,#'  ##    ##  '#,     ,#' ,#      #,     #,   #   #,  ,#        
             '#######'   ##     ##  '#######'  #'      '#     '####' # '####'        



                #########################################################
                #                        -***-                          #
                #          Department of theory and spectroscopy        #
                #                                                       #
                #                      Frank Neese                      #
                #                                                       #
                #     Directorship, Architecture, Infrastructure        #
                #                    SHARK, DRIVERS                     #
                #        Core code/Algorithms in most modules           #
                #                                                       #
                #        Max Planck Institute fuer Kohlenforschung      #
                #                Kaiser Wilhelm Platz 1                 #
                #                 D-45470 Muelheim/Ruhr                 #
                #                      Germany                          #
                #                                                       #
                #                  All rights reserved                  #
                #                        -***-                          #
                #########################################################


                         Program Version 6.0.1  -  RELEASE   -


 With contributions from (in alphabetic order):
[Max-Planck-Institut fuer Kohlenforschung]                               
  Daniel Aravena         : Magnetic Suceptibility                        
  Michael Atanasov       : Ab Initio Ligand Field Theory (pilot matlab implementation)
  Alexander A. Auer      : GIAO ZORA, VPT2 properties, NMR spectrum      
  Ute Becker             : All parallelization in ORCA, NUMFREQ, NUMCALC 
  Giovanni Bistoni       : ED, misc. LED, open-shell LED, HFLD           
  Martin Brehm           : Molecular dynamics                            
  Dmytro Bykov           : pre 5.0 version of the SCF Hessian            
  Marcos Casanova-Páez   : Triplet and SCS-CIS(D). UHF-(DLPNO)-IP/EA/STEOM-CCSD. UHF-CVS-IP/STEOM-CCSD   
  Vijay G. Chilkuri      : MRCI spin determinant printing, contributions to CSF-ICE 
  Pauline Colinet        : FMM embedding                                 
  Dipayan Datta          : RHF DLPNO-CCSD density                        
  Achintya Kumar Dutta   : EOM-CC, STEOM-CC                              
  Nicolas Foglia         : Exact transition moments, OPA infrastructure, MCD improvements    
  Dmitry Ganyushin       : Spin-Orbit,Spin-Spin,Magnetic field MRCI      
  Miquel Garcia-Rates    : C-PCM and meta-GGA Hessian, CCSD/C-PCM, Gaussian charge scheme 
  Tiago L. C. Gouveia    : GS-ROHF, GS-ROCIS                             
  Yang Guo               : DLPNO-NEVPT2, F12-NEVPT2, CIM, IAO-localization        
  Andreas Hansen         : Spin unrestricted coupled pair/coupled cluster methods 
  Ingolf Harden          : AUTO-CI MPn and infrastructure                
  Benjamin Helmich-Paris : MC-RPA, TRAH-(SCF,CASSCF), AVAS, COSX integrals, SCF dyn. polar. 
  Lee Huntington         : MR-EOM, pCC                                   
  Robert Izsak           : Overlap fitted RIJCOSX, COSX-SCS-MP3, EOM     
  Riya Kayal             : Wick's Theorem for AUTO-CI, AUTO-CI UHF-CCSDT 
  Emily Kempfer          : AUTO-CI, RHF CISDT and CCSDT                  
  Christian Kollmar      : KDIIS, OOCD, Brueckner-CCSD(T), CCSD density, CASPT2, CASPT2-K, improved NEVPT2 
  Axel Koslowski         : Symmetry handling                             
  Simone Kossmann        : meta-GGA functionals, TD-DFT gradient, OOMP2, (MP2 Hessian; deprecated post 5.0) 
  Lucas Lang             : DCDCAS                                        
  Marvin Lechner         : AUTO-CI (C++ implementation), FIC-MRCC        
  Spencer Leger          : CASSCF response                               
  Dagmar Lenk            : GEPOL surface, SMD, ORCA-2-JSON               
  Dimitrios Liakos       : Extrapolation schemes; Compound Job, initial MDCI parallelization 
  Dimitrios Manganas     : Further ROCIS development; embedding schemes. LFT, Crystal Embedding 
  Dimitrios Pantazis     : SARC Basis sets                               
  Anastasios Papadopoulos: AUTO-CI, single reference methods and gradients 
  Taras Petrenko         : pre 6.0 DFT Hessian and TD-DFT gradient, (ASA, deprecated), ECA, 1-Electron XAS/XES, NRVS 
  Peter Pinski           : DLPNO-MP2, DLPNO-MP2 Gradient                 
  Christoph Reimann      : Effective Core Potentials                     
  Marius Retegan         : Local ZFS, SOC                                
  Christoph Riplinger    : Optimizer, TS searches, QM/MM, DLPNO-CCSD(T), (RO)-DLPNO pert. Triples 
  Michael Roemelt        : Original ROCIS implementation                 
  Masaaki Saitow         : Open-shell DLPNO-CCSD energy and density      
  Barbara Sandhoefer     : DKH picture change effects                    
  Kantharuban Sivalingam : CASSCF convergence/infrastructure, NEVPT2 and variants, FIC-MRCI 
  Bernardo de Souza      : ESD, SOC TD-DFT                               
  Georgi L. Stoychev     : AutoAux, RI-MP2 NMR, DLPNO-MP2 response, X2C  
  Van Anh Tran           : RI-MP2 g-tensors                              
  Willem Van den Heuvel  : Paramagnetic NMR                              
  Zikuan Wang            : NOTCH, Electric field optimization            
  Frank Wennmohs         : Technical directorship and infrastructure     
  Hang Xu                : AUTO-CI-Response properties                   
                                                                         
[FACCTs GmbH]                                                            
  Markus Bursch, Miquel Garcia-Rates, Christoph Riplinger, Bernardo de Souza, Georgi L. Stoychev 
                                                                 
  APM, Basis sets (HGBS, AHGBS, def-TZVP (Ac-Lr), def2-XVPD (La-Lu)), CI-OPT, improved COSX, DLPNO-Multilevel,           
  DOCKER, DRACO, updates on ESD, GOAT, IRC, LR-CPCM, MBIS, meta-GGA TD-DFT gradient, ML-optimized integration grids, 
  MM, NACMEs, nearIR, NEB, NEB-TS, NL-DFT gradient (VV10), 2- and 3-layer-ONIOM, interface openCOSMO-RS, QMMM,   
  Crystal-QMMM, SF, symmetry and pop. for TD-DFT, r2SCAN hybrids, SOLVATOR                                   
                                                                         
[Other institutions]                                                     
  V. Asgeirsson          : NEB                                           
  Christoph Bannwarth    : sTDA-DFT, sTD-DFT, PBEh-3c, B97-3c, D3        
  Sebastian Ehlert       : rSCAN, r2SCAN, r2SCAN-3c, D4, dhf basis sets  
  Marvin Friede          : D4 for Fr, Ra, Ac-Lr                          
  Lars Goerigk           : TD-DFT with DH, B97 family of functionals     
  Stefan Grimme          : VdW corrections, initial TS optimization, DFT functionals, gCP, sTDA/sTD-DF 
  Waldemar Hujo          : DFT-NL                                        
  H. Jonsson             : NEB                                           
  Holger Kruse           : gCP                                           
  Marcel Mueller         : wB97X-3c, vDZP basis set                      
  Hagen Neugebauer       : wr2SCAN                                       
  Tobias Risthaus        : range-separated hybrid DFT                    
  Lukas Wittmann         : regularized MP2, r2SCAN double-hybrids, wr2SCAN        
                                                                         
We gratefully acknowledge several colleagues who have allowed us to      
interface, adapt or use parts of their codes:                            
  Ed Valeev, F. Pavosevic, A. Kumar             : LibInt (2-el integral package), F12 methods 
  Garnet Chan, S. Sharma, J. Yang, R. Olivares  : DMRG                   
  Ulf Ekstrom                                   : XCFun DFT Library      
  Mihaly Kallay                                 : mrcc  (arbitrary order and MRCC methods)
  Frank Weinhold                                : gennbo (NPA and NBO analysis)           
  Simon Mueller                                 : openCOSMO-RS                            
  Christopher J. Cramer and Donald G. Truhlar   : smd solvation model                     
  S Lehtola, MJT Oliveira, MAL Marques          : LibXC Library                           
  Liviu Ungur et al                             : ANISO software                          


 Your calculation uses the libint2 library for the computation of 2-el integrals
 For citations please refer to: http://libint.valeyev.net

 Your ORCA version has been built with support for libXC version: 6.2.2
 For citations please refer to: https://libxc.gitlab.io

 This ORCA versions uses:
   CBLAS   interface :  Fast vector & matrix operations
   LAPACKE interface :  Fast linear algebra routines
   SCALAPACK package :  Parallel linear algebra routines
   Shared memory     :  Shared parallel matrices
   BLAS/LAPACK       :  OpenBLAS 0.3.27  USE64BITINT DYNAMIC_ARCH NO_AFFINITY SapphireRapids SINGLE_THREADED
        Core in use  :  SapphireRapids
   Copyright (c) 2011-2014, The OpenBLAS Project


Warning! Weird basis set assignment to AuxJK basis!


***************************************
The coordinates will be read from file: /g/data/kx58/rs2200/dhdft/inputs/compas3x-xyzs/hc_c30h16_0pent_1.xyz
***************************************


Your calculation utilizes the atom-pairwise dispersion correction
based on EEQ partial charges (D4)


================================================================================

----- Orbital basis set information -----
Your calculation utilizes the basis: def2-QZVPP
   F. Weigend and R. Ahlrichs, Phys. Chem. Chem. Phys. 7, 3297 (2005).

----- AuxC basis set information -----
Your calculation utilizes the auxiliary basis: def2-QZVPP/C
  H-La, Hf-Rn : A. Hellweg, C. Hattig, S. Hofener and W. Klopper, Theor. Chem. Acc. 117, 587 (2007).
        Ce-Lu : J. Chmela and M. E. Harding, Mol. Phys. (2018).

----- AuxJK basis set information -----
Your calculation utilizes the auxiliary basis: def2-QZVPP/C
  H-La, Hf-Rn : A. Hellweg, C. Hattig, S. Hofener and W. Klopper, Theor. Chem. Acc. 117, 587 (2007).
        Ce-Lu : J. Chmela and M. E. Harding, Mol. Phys. (2018).

================================================================================
                                        WARNINGS
                       Please study these warnings very carefully!
================================================================================


WARNING: No MP2 level density has been requested!
         To calculate MP2 level properties use
         %mp2 Density relaxed end
         or
         %mp2 Density unrelaxed end
         Otherwise for double-hybrid DFT only the energy is correct!

================================================================================
                                       INPUT FILE
================================================================================
NAME = compas3x_hc_c30h16_0pent_1_qz_riri.inp
|  1> ! RKS revDSD-PBEP86-D4/2021 defgrid3  RIJK NOPOP NoFrozencore NoUseSym
|  2> 
|  3> %basis
|  4> Basis "def2-QZVPP"
|  5> AuxJK "def2-QZVPP/C"
|  6> AuxC "def2-QZVPP/C"
|  7> end
|  8> 
|  9> %method
| 10> ScalHFX 0.69
| 11> ScalDFX 0.31
| 12> ScalDFC 0.4038
| 13> ScalLDAC 0.4038
| 14> 
| 15> D4S6 0.4612
| 16> D4S8 0.0
| 17> D4A1 0.44
| 18> D4A2 3.60
| 19> end
| 20> 
| 21> %mp2
| 22> PS 0.5979
| 23> PT 0.0571
| 24> 
| 25> end
| 26> 
| 27> %pal
| 28> nprocs 104
| 29> end
| 30> 
| 31> *XYZFILE 0 1 /g/data/kx58/rs2200/dhdft/inputs/compas3x-xyzs/hc_c30h16_0pent_1.xyz
| 32> 
| 33>                          ****END OF INPUT****
================================================================================

                       ****************************
                       * Single Point Calculation *
                       ****************************

---------------------------------
CARTESIAN COORDINATES (ANGSTROEM)
---------------------------------
  C      1.561428   -0.910170   -0.550254
  C      1.122290   -2.254738   -0.451795
  C     -0.254890   -2.531218   -0.273882
  C     -1.181327   -1.460826   -0.195151
  C     -0.675578   -0.135674    0.087183
  C      0.676034    0.135930   -0.088290
  C      2.812321   -0.681067   -1.123883
  C      3.685337   -1.726598   -1.379641
  C      3.328551   -3.028818   -1.098189
  C      2.027076   -3.318794   -0.683716
  C      1.557805   -4.659457   -0.562231
  C      0.242637   -4.923424   -0.392762
  C     -0.714855   -3.869098   -0.330033
  C     -2.087485   -4.115637   -0.399429
  C     -2.969161   -3.061859   -0.519922
  C     -2.524747   -1.752030   -0.433192
  C     -1.560968    0.909828    0.550322
  C     -1.122259    2.254532    0.452640
  C      0.254610    2.531474    0.273009
  C      1.181442    1.461406    0.193315
  C     -2.027106    3.318080    0.686699
  C     -1.558547    4.658988    0.565300
  C     -0.243815    4.923495    0.393341
  C      0.714003    3.869584    0.328546
  C     -2.811294    0.679640    1.124744
  C     -3.684128    1.724671    1.383056
  C     -3.327863    3.027313    1.102860
  C      2.086615    4.116866    0.395550
  C      2.968932    3.063538    0.515123
  C      2.524976    1.753464    0.429770
  H      3.097831    0.318743   -1.410903
  H      4.655907   -1.513773   -1.804166
  H      4.024767   -3.837840   -1.265835
  H      2.276919   -5.460804   -0.657035
  H     -0.117847   -5.941442   -0.348502
  H     -2.442444   -5.135575   -0.432137
  H     -4.019723   -3.254512   -0.683413
  H     -3.229349   -0.950675   -0.591026
  H     -2.277764    5.460019    0.661963
  H      0.116199    5.941667    0.348798
  H     -3.096391   -0.320701    1.410355
  H     -4.654117    1.511141    1.808555
  H     -4.023967    3.836004    1.272562
  H      2.441121    5.136991    0.427324
  H      4.019656    3.256732    0.676919
  H      3.230170    0.952625    0.587457

----------------------------
CARTESIAN COORDINATES (A.U.)
----------------------------
  NO LB      ZA    FRAG     MASS         X           Y           Z
   0 C     6.0000    0    12.011    2.950672   -1.719972   -1.039830
   1 C     6.0000    0    12.011    2.120821   -4.260838   -0.853770
   2 C     6.0000    0    12.011   -0.481673   -4.783308   -0.517563
   3 C     6.0000    0    12.011   -2.232384   -2.760562   -0.368781
   4 C     6.0000    0    12.011   -1.276658   -0.256387    0.164752
   5 C     6.0000    0    12.011    1.277519    0.256870   -0.166844
   6 C     6.0000    0    12.011    5.314516   -1.287031   -2.123832
   7 C     6.0000    0    12.011    6.964277   -3.262796   -2.607143
   8 C     6.0000    0    12.011    6.290049   -5.723636   -2.075277
   9 C     6.0000    0    12.011    3.830619   -6.271613   -1.292036
  10 C     6.0000    0    12.011    2.943825   -8.805098   -1.062463
  11 C     6.0000    0    12.011    0.458517   -9.303923   -0.742213
  12 C     6.0000    0    12.011   -1.350879   -7.311535   -0.623673
  13 C     6.0000    0    12.011   -3.944775   -7.777426   -0.754811
  14 C     6.0000    0    12.011   -5.610902   -5.786076   -0.982511
  15 C     6.0000    0    12.011   -4.771080   -3.310858   -0.818614
  16 C     6.0000    0    12.011   -2.949802    1.719326    1.039958
  17 C     6.0000    0    12.011   -2.120762    4.260448    0.855366
  18 C     6.0000    0    12.011    0.481144    4.783792    0.515911
  19 C     6.0000    0    12.011    2.232601    2.761656    0.365312
  20 C     6.0000    0    12.011   -3.830676    6.270263    1.297674
  21 C     6.0000    0    12.011   -2.945227    8.804211    1.068261
  22 C     6.0000    0    12.011   -0.460743    9.304056    0.743308
  23 C     6.0000    0    12.011    1.349269    7.312455    0.620861
  24 C     6.0000    0    12.011   -5.312577    1.284334    2.125457
  25 C     6.0000    0    12.011   -6.961993    3.259156    2.613598
  26 C     6.0000    0    12.011   -6.288750    5.720793    2.084103
  27 C     6.0000    0    12.011    3.943130    7.779750    0.747481
  28 C     6.0000    0    12.011    5.610468    5.789249    0.973441
  29 C     6.0000    0    12.011    4.771513    3.313567    0.812147
  30 H     1.0000    0     1.008    5.854052    0.602337   -2.666220
  31 H     1.0000    0     1.008    8.798390   -2.860616   -3.409379
  32 H     1.0000    0     1.008    7.605707   -7.252466   -2.392081
  33 H     1.0000    0     1.008    4.302754  -10.319423   -1.241615
  34 H     1.0000    0     1.008   -0.222699  -11.227698   -0.658573
  35 H     1.0000    0     1.008   -4.615550   -9.704830   -0.816621
  36 H     1.0000    0     1.008   -7.596175   -6.150136   -1.291464
  37 H     1.0000    0     1.008   -6.102585   -1.796515   -1.116878
  38 H     1.0000    0     1.008   -4.304351   10.317940    1.250928
  39 H     1.0000    0     1.008    0.219584   11.228124    0.659133
  40 H     1.0000    0     1.008   -5.851331   -0.606038    2.665184
  41 H     1.0000    0     1.008   -8.795006    2.855642    3.417674
  42 H     1.0000    0     1.008   -7.604195    7.248996    2.404794
  43 H     1.0000    0     1.008    4.613050    9.707505    0.807525
  44 H     1.0000    0     1.008    7.596050    6.154331    1.279191
  45 H     1.0000    0     1.008    6.104137    1.800200    1.110132

--------------------------------
INTERNAL COORDINATES (ANGSTROEM)
--------------------------------
 C      0   0   0     0.000000000000     0.00000000     0.00000000
 C      1   0   0     1.417885707450     0.00000000     0.00000000
 C      2   1   0     1.415881515994   119.67939231     0.00000000
 C      3   2   1     1.417822682287   119.67762116   359.96419613
 C      4   3   2     1.446209624272   118.30041354   342.42609811
 C      5   4   3     1.389753824062   119.63899339    17.60907650
 C      1   2   3     1.395087880112   117.51515303   199.32624425
 C      7   1   2     1.385893884630   121.11858319   349.37374400
 C      8   7   1     1.379234598869   120.77526809     1.34447018
 C      9   8   7     1.396320439921   119.85200713     6.79782025
 C     10   9   8     1.425605264341   121.83043970   171.05715244
 C     11  10   9     1.352059813774   120.96226134   191.83718375
 C      3   2   1     1.415853920429   119.70405158   172.72699068
 C     13   3   2     1.396320927514   119.22009432   191.63161392
 C     14  13   3     1.379245343882   119.85738445     5.15783930
 C     15  14  13     1.385885589719   120.77313203   353.21129067
 C      5   4   3     1.446197708267   120.71982154   197.61911375
 C     17   5   4     1.417827374585   118.30393628   197.57201512
 C     18  17   5     1.415886141964   119.67936159   342.45323199
 C     19  18  17     1.417890300954   119.68113659   359.96416258
 C     18  17   5     1.415863149508   120.21791710   169.72392072
 C     21  18  17     1.425593866948   118.84332367   180.72408893
 C     22  21  18     1.352055862387   120.96040574   351.92080743
 C     19  18  17     1.415862236671   119.69604956   187.20759777
 C     17   5   4     1.395085349512   124.14365724    19.43749353
 C     25  17   5     1.385876673660   121.11660618   188.72663478
 C     26  25  17     1.379242798766   120.77254645   358.68467041
 C     24  19  18     1.396317095469   119.22271574   168.40152948
 C     28  24  19     1.379232011456   119.85237153   354.80389795
 C     29  28  24     1.385884838949   120.77467340     6.78964330
 H      7   1   2     1.078664611947   119.93095389   167.00345639
 H      8   7   1     1.080520126576   119.32373009   181.37198663
 H      9   8   7     1.080434313334   120.57235541   182.20051349
 H     11  10   9     1.080865221910   118.08239529     8.94988569
 H     12  11  10     1.080864274328   120.89245884   177.02832883
 H     14  13   3     1.080434923463   119.41559156   180.62596470
 H     15  14  13     1.080520038302   119.90195864   173.24349052
 H     16  15  14     1.078678078947   118.91503093   176.34128873
 H     22  21  18     1.080864313041   118.08346383   174.79369085
 H     23  22  21     1.080865198950   120.89135664   182.95065274
 H     25  17   5     1.078673771010   119.92840010    11.09783630
 H     26  25  17     1.080519812286   119.32503982   178.65566047
 H     27  26  25     1.080434873872   120.56972608   177.80281649
 H     28  24  19     1.080434144128   119.41724650   179.34611646
 H     29  28  24     1.080520010710   119.90145651   186.76455376
 H     30  29  28     1.078660325944   118.90728809   183.69497721

---------------------------
INTERNAL COORDINATES (A.U.)
---------------------------
 C      0   0   0     0.000000000000     0.00000000     0.00000000
 C      1   0   0     2.679415676282     0.00000000     0.00000000
 C      2   1   0     2.675628303309   119.67939231     0.00000000
 C      3   2   1     2.679296575983   119.67762116   359.96419613
 C      4   3   2     2.732940122115   118.30041354   342.42609811
 C      5   4   3     2.626254121046   119.63899339    17.60907650
 C      1   2   3     2.636334026165   117.51515303   199.32624425
 C      7   1   2     2.618959892627   121.11858319   349.37374400
 C      8   7   1     2.606375666292   120.77526809     1.34447018
 C      9   8   7     2.638663226648   119.85200713     6.79782025
 C     10   9   8     2.694003524681   121.83043970   171.05715244
 C     11  10   9     2.555022764713   120.96226134   191.83718375
 C      3   2   1     2.675576155250   119.70405158   172.72699068
 C     13   3   2     2.638664148064   119.22009432   191.63161392
 C     14  13   3     2.606395971423   119.85738445     5.15783930
 C     15  14  13     2.618944217518   120.77313203   353.21129067
 C      5   4   3     2.732917604129   120.71982154   197.61911375
 C     17   5   4     2.679305443143   118.30393628   197.57201512
 C     18  17   5     2.675637045126   119.67936159   342.45323199
 C     19  18  17     2.679424356747   119.68113659   359.96416258
 C     18  17   5     2.675593595681   120.21791710   169.72392072
 C     21  18  17     2.693981986729   118.84332367   180.72408893
 C     22  21  18     2.555015297675   120.96040574   351.92080743
 C     19  18  17     2.675591870669   119.69604956   187.20759777
 C     17   5   4     2.636329244024   124.14365724    19.43749353
 C     25  17   5     2.618927368607   121.11660618   188.72663478
 C     26  25  17     2.606391161850   120.77254645   358.68467041
 C     24  19  18     2.638656906549   119.22271574   168.40152948
 C     28  24  19     2.606370776789   119.85237153   354.80389795
 C     29  28  24     2.618942798767   120.77467340     6.78964330
 H      7   1   2     2.038380706932   119.93095389   167.00345639
 H      8   7   1     2.041887121419   119.32373009   181.37198663
 H      9   8   7     2.041724957893   120.57235541   182.20051349
 H     11  10   9     2.042539257091   118.08239529     8.94988569
 H     12  11  10     2.042537466420   120.89245884   177.02832883
 H     14  13   3     2.041726110870   119.41559156   180.62596470
 H     15  14  13     2.041886954605   119.90195864   173.24349052
 H     16  15  14     2.038406155874   118.91503093   176.34128873
 H     22  21  18     2.042537539577   118.08346383   174.79369085
 H     23  22  21     2.042539213701   120.89135664   182.95065274
 H     25  17   5     2.038398015054   119.92840010    11.09783630
 H     26  25  17     2.041886527496   119.32503982   178.65566047
 H     27  26  25     2.041726017155   120.56972608   177.80281649
 H     28  24  19     2.041724638139   119.41724650   179.34611646
 H     29  28  24     2.041886902463   119.90145651   186.76455376
 H     30  29  28     2.038372607561   118.90728809   183.69497721

---------------------
BASIS SET INFORMATION
---------------------
There are 2 groups of distinct atoms

 Group   1 Type C   : 15s8p3d2f1g contracted to 7s4p3d2f1g pattern {8211111/5111/111/11/1}
 Group   2 Type H   : 7s3p2d1f contracted to 4s3p2d1f pattern {4111/111/11/1}

Atom   0C    basis set group =>   1
Atom   1C    basis set group =>   1
Atom   2C    basis set group =>   1
Atom   3C    basis set group =>   1
Atom   4C    basis set group =>   1
Atom   5C    basis set group =>   1
Atom   6C    basis set group =>   1
Atom   7C    basis set group =>   1
Atom   8C    basis set group =>   1
Atom   9C    basis set group =>   1
Atom  10C    basis set group =>   1
Atom  11C    basis set group =>   1
Atom  12C    basis set group =>   1
Atom  13C    basis set group =>   1
Atom  14C    basis set group =>   1
Atom  15C    basis set group =>   1
Atom  16C    basis set group =>   1
Atom  17C    basis set group =>   1
Atom  18C    basis set group =>   1
Atom  19C    basis set group =>   1
Atom  20C    basis set group =>   1
Atom  21C    basis set group =>   1
Atom  22C    basis set group =>   1
Atom  23C    basis set group =>   1
Atom  24C    basis set group =>   1
Atom  25C    basis set group =>   1
Atom  26C    basis set group =>   1
Atom  27C    basis set group =>   1
Atom  28C    basis set group =>   1
Atom  29C    basis set group =>   1
Atom  30H    basis set group =>   2
Atom  31H    basis set group =>   2
Atom  32H    basis set group =>   2
Atom  33H    basis set group =>   2
Atom  34H    basis set group =>   2
Atom  35H    basis set group =>   2
Atom  36H    basis set group =>   2
Atom  37H    basis set group =>   2
Atom  38H    basis set group =>   2
Atom  39H    basis set group =>   2
Atom  40H    basis set group =>   2
Atom  41H    basis set group =>   2
Atom  42H    basis set group =>   2
Atom  43H    basis set group =>   2
Atom  44H    basis set group =>   2
Atom  45H    basis set group =>   2
---------------------------------
AUXILIARY/C BASIS SET INFORMATION
---------------------------------
There are 2 groups of distinct atoms

 Group   1 Type C   : 9s8p7d5f3g1h contracted to 9s8p7d5f3g1h pattern {111111111/11111111/1111111/11111/111/1}
 Group   2 Type H   : 6s4p3d2f1g contracted to 6s4p3d2f1g pattern {111111/1111/111/11/1}

Atom   0C    basis set group =>   1
Atom   1C    basis set group =>   1
Atom   2C    basis set group =>   1
Atom   3C    basis set group =>   1
Atom   4C    basis set group =>   1
Atom   5C    basis set group =>   1
Atom   6C    basis set group =>   1
Atom   7C    basis set group =>   1
Atom   8C    basis set group =>   1
Atom   9C    basis set group =>   1
Atom  10C    basis set group =>   1
Atom  11C    basis set group =>   1
Atom  12C    basis set group =>   1
Atom  13C    basis set group =>   1
Atom  14C    basis set group =>   1
Atom  15C    basis set group =>   1
Atom  16C    basis set group =>   1
Atom  17C    basis set group =>   1
Atom  18C    basis set group =>   1
Atom  19C    basis set group =>   1
Atom  20C    basis set group =>   1
Atom  21C    basis set group =>   1
Atom  22C    basis set group =>   1
Atom  23C    basis set group =>   1
Atom  24C    basis set group =>   1
Atom  25C    basis set group =>   1
Atom  26C    basis set group =>   1
Atom  27C    basis set group =>   1
Atom  28C    basis set group =>   1
Atom  29C    basis set group =>   1
Atom  30H    basis set group =>   2
Atom  31H    basis set group =>   2
Atom  32H    basis set group =>   2
Atom  33H    basis set group =>   2
Atom  34H    basis set group =>   2
Atom  35H    basis set group =>   2
Atom  36H    basis set group =>   2
Atom  37H    basis set group =>   2
Atom  38H    basis set group =>   2
Atom  39H    basis set group =>   2
Atom  40H    basis set group =>   2
Atom  41H    basis set group =>   2
Atom  42H    basis set group =>   2
Atom  43H    basis set group =>   2
Atom  44H    basis set group =>   2
Atom  45H    basis set group =>   2
----------------------------------
AUXILIARY/JK BASIS SET INFORMATION
----------------------------------
There are 2 groups of distinct atoms

 Group   1 Type C   : 9s8p7d5f3g1h contracted to 9s8p7d5f3g1h pattern {111111111/11111111/1111111/11111/111/1}
 Group   2 Type H   : 6s4p3d2f1g contracted to 6s4p3d2f1g pattern {111111/1111/111/11/1}

Atom   0C    basis set group =>   1
Atom   1C    basis set group =>   1
Atom   2C    basis set group =>   1
Atom   3C    basis set group =>   1
Atom   4C    basis set group =>   1
Atom   5C    basis set group =>   1
Atom   6C    basis set group =>   1
Atom   7C    basis set group =>   1
Atom   8C    basis set group =>   1
Atom   9C    basis set group =>   1
Atom  10C    basis set group =>   1
Atom  11C    basis set group =>   1
Atom  12C    basis set group =>   1
Atom  13C    basis set group =>   1
Atom  14C    basis set group =>   1
Atom  15C    basis set group =>   1
Atom  16C    basis set group =>   1
Atom  17C    basis set group =>   1
Atom  18C    basis set group =>   1
Atom  19C    basis set group =>   1
Atom  20C    basis set group =>   1
Atom  21C    basis set group =>   1
Atom  22C    basis set group =>   1
Atom  23C    basis set group =>   1
Atom  24C    basis set group =>   1
Atom  25C    basis set group =>   1
Atom  26C    basis set group =>   1
Atom  27C    basis set group =>   1
Atom  28C    basis set group =>   1
Atom  29C    basis set group =>   1
Atom  30H    basis set group =>   2
Atom  31H    basis set group =>   2
Atom  32H    basis set group =>   2
Atom  33H    basis set group =>   2
Atom  34H    basis set group =>   2
Atom  35H    basis set group =>   2
Atom  36H    basis set group =>   2
Atom  37H    basis set group =>   2
Atom  38H    basis set group =>   2
Atom  39H    basis set group =>   2
Atom  40H    basis set group =>   2
Atom  41H    basis set group =>   2
Atom  42H    basis set group =>   2
Atom  43H    basis set group =>   2
Atom  44H    basis set group =>   2
Atom  45H    basis set group =>   2


           ************************************************************
           *        Program running with 104 parallel MPI-processes   *
           *              working on a common directory               *
           ************************************************************
------------------------------------------------------------------------------
                             ORCA STARTUP CALCULATIONS
                           -- RI-GTO INTEGRALS CHOSEN --
------------------------------------------------------------------------------
------------------------------------------------------------------------------
                   ___                                                        
                  /   \      - P O W E R E D   B Y -                         
                 /     \                                                     
                 |  |  |   _    _      __       _____    __    __             
                 |  |  |  | |  | |    /  \     |  _  \  |  |  /  |          
                  \  \/   | |  | |   /    \    | | | |  |  | /  /          
                 / \  \   | |__| |  /  /\  \   | |_| |  |  |/  /          
                |  |  |   |  __  | /  /__\  \  |    /   |      \           
                |  |  |   | |  | | |   __   |  |    \   |  |\   \          
                \     /   | |  | | |  |  |  |  | |\  \  |  | \   \       
                 \___/    |_|  |_| |__|  |__|  |_| \__\ |__|  \__/        
                                                                              
                      - O R C A' S   B I G   F R I E N D -                    
                                      &                                       
                       - I N T E G R A L  F E E D E R -                       
                                                                              
 v1 FN, 2020, v2 2021, v3 2022-2024                                           
------------------------------------------------------------------------------


----------------------
SHARK INTEGRAL PACKAGE
----------------------

Number of atoms                             ...     46
Number of basis functions                   ...   2190
Number of shells                            ...    670
Maximum angular momentum                    ...      4
Integral batch strategy                     ... SHARK/LIBINT Hybrid
RI-J (if used) integral strategy            ... SPLIT-RIJ (Revised 2003 algorithm where possible)
Printlevel                                  ...      1
Contraction scheme used                     ... SEGMENTED contraction
Prescreening option                         ... SCHWARTZ
   Thresh                                   ... 1.000e-10
   Tcut                                     ... 1.000e-11
   Tpresel                                  ... 1.000e-11 
Coulomb Range Separation                    ... NOT USED
Exchange Range Separation                   ... NOT USED
Multipole approximations                    ... NOT USED
Finite Nucleus Model                        ... NOT USED
CABS basis                                  ... NOT available
Auxiliary Coulomb fitting basis             ... NOT available
Auxiliary J/K fitting basis                 ... AVAILABLE
   # of basis functions in Aux-JK           ...   5126
   # of shells in Aux-JK                    ...   1246
   Maximum angular momentum in Aux-JK       ...      5
Auxiliary Correlation fitting basis         ... AVAILABLE
   # of basis functions in Aux-C            ...   5126
   # of shells in Aux-C                     ...   1246
   Maximum angular momentum in Aux-C        ...      5
Auxiliary 'external' fitting basis          ... NOT available

Checking pre-screening integrals            ... done (  0.0 sec) Dimension = 670
Check shell pair data                       ... done (  0.0 sec)
Shell pair information
Shell pair cut-off parameter TPreSel        ...   1.0e-11
Total number of shell pairs                 ...    224785
Shell pairs after pre-screening             ...    126955
Total number of primitive shell pairs       ...    582847
Primitive shell pairs kept                  ...    222446
          la=0 lb=0:  19127 shell pairs
          la=1 lb=0:  28797 shell pairs
          la=1 lb=1:  10116 shell pairs
          la=2 lb=0:  17200 shell pairs
          la=2 lb=1:  13048 shell pairs
          la=2 lb=2:   4080 shell pairs
          la=3 lb=0:  10266 shell pairs
          la=3 lb=1:   7804 shell pairs
          la=3 lb=2:   4648 shell pairs
          la=3 lb=3:   1406 shell pairs
          la=4 lb=0:   4092 shell pairs
          la=4 lb=1:   3150 shell pairs
          la=4 lb=2:   1880 shell pairs
          la=4 lb=3:   1100 shell pairs
          la=4 lb=4:    241 shell pairs

Calculating one electron integrals          ... done (  0.7 sec)
Calculating RI/JK V-Matrix + Cholesky decomp... done (  1.1 sec)
Calculating RI/C V-Matrix + Cholesky decomp.... done (  1.0 sec)
Calculating Nuclear repulsion               ... done (  0.0 sec) ENN=   2606.146380180131 Eh

Diagonalization of the overlap matrix:
Smallest eigenvalue                        ... 1.722e-07
Time for diagonalization                   ...    0.767 sec
Threshold for overlap eigenvalues          ... 1.000e-07
Number of eigenvalues below threshold      ... 0

IMPORTANT:
Smallest eigenvalue of S below the DiffSThresh (1.000e-06) while
Thresh>1e-12 and/or TCut>1e-13! In order to avoid SCF convergence issues,
Thresh will be set to at least 1e-12 and TCut to at least 1e-13.
This can be turned off by adding %SCF DiffSThresh -1 END to the input.

Time for construction of square roots      ...    0.468 sec
Total time needed                          ...    1.288 sec

-------------------
DFT GRID GENERATION
-------------------

General Integration Accuracy     IntAcc      ... 4.959
Radial Grid Type                 RadialGrid  ... OptM3 with GC (2021)
Angular Grid (max. ang.)         AngularGrid ... 6 (Lebedev-590)
Angular grid pruning method      GridPruning ... 4 (adaptive)
Weight generation scheme         WeightScheme... mBecke (2022)
Basis function cutoff            BFCut       ... 1.0000e-10
Integration weight cutoff        WCut        ... 1.0000e-14
Partially contracted basis set               ... off
Rotationally invariant grid construction     ... off
Angular grids for H and He will be reduced by one unit
Diffuse basis detected: some atoms will have their outermost
                        angular grid increased by 1.

Total number of grid points                  ...   569345
Total number of batches                      ...     8919
Average number of points per batch           ...       63
Average number of grid points per atom       ...    12377
Initializing property integral containers    ... done (  0.0 sec)

SHARK setup successfully completed in  11.6 seconds

Maximum memory used throughout the entire STARTUP-calculation: 254.9 MB


           ************************************************************
           *        Program running with 104 parallel MPI-processes   *
           *              working on a common directory               *
           ************************************************************
-------------------------------------------------------------------------------
                                 ORCA GUESS
                   Start orbitals & Density for SCF / CASSCF
-------------------------------------------------------------------------------

------------
SCF SETTINGS
------------
Hamiltonian:
 Density Functional     Method          .... DFT(GTOs)
 Exchange Functional    Exchange        .... PBE
   PBE kappa parameter   XKappa         ....  0.804000
   PBE mue parameter    XMuePBE         ....  0.219520
 Correlation Functional Correlation     .... P86
 LDA part of GGA corr.  LDAOpt          .... VWN-5
 Gradients option       PostSCFGGA      .... off
 Hybrid DFT is turned on
   Fraction HF Exchange ScalHFX         ....  0.690000
   Scaling of DF-GGA-X  ScalDFX         ....  0.310000
   Scaling of DF-GGA-C  ScalDFC         ....  0.403800
   Scaling of DF-LDA-C  ScalLDAC        ....  0.403800
   Perturbative correction              ....  1.000000
 RI-approximation to the Coulomb term is turned on
   Number of AuxJK basis functions      .... 5126
   RI-JK (J+K treated both via RI)      .... on


General Settings:
 Integral files         IntName         .... compas3x_hc_c30h16_0pent_1_qz_riri
 Hartree-Fock type      HFTyp           .... RHF
 Total Charge           Charge          ....    0
 Multiplicity           Mult            ....    1
 Number of Electrons    NEL             ....  196
 Basis Dimension        Dim             .... 2190
 Nuclear Repulsion      ENuc            ....   2606.1463801801 Eh

Convergence Acceleration:
 AO-DIIS                CNVDIIS         .... on
   Start iteration      DIISMaxIt       ....    12
   Startup error        DIISStart       ....  0.200000
   # of expansion vecs  DIISMaxEq       ....     5
   Bias factor          DIISBfac        ....   1.050
   Max. coefficient     DIISMaxC        ....  10.000
 MO-DIIS                CNVKDIIS        .... off
 Trust-Rad. Augm. Hess. CNVTRAH         .... auto
   Auto Start mean grad. ratio tolernc. ....  1.125000
   Auto Start start iteration           ....    50
   Auto Start num. interpolation iter.  ....    10
   Max. Number of Micro iterations      ....    24
   Max. Number of Macro iterations      .... Maxiter - #DIIS iter
   Number of Davidson start vectors     ....     2
   Converg. threshold    (grad. norm)   ....   5.000e-05
   Grad. Scal. Fac. for Micro threshold ....   0.100
   Minimum threshold for Micro iter.    ....   1.000e-02
   NR start threshold (gradient norm)   ....   1.000e-04
   Initial trust radius                 ....   0.400
   Minimum AH scaling param. (alpha)    ....   1.000
   Maximum AH scaling param. (alpha)    .... 1000.000
   Quad. conv. algorithm                .... NR
   White noise on init. David. guess    .... on
   Maximum white noise                  ....   0.010
   Pseudo random numbers                .... off
   Inactive MOs                         .... canonical
   Orbital update algorithm             .... Taylor
   Preconditioner                       .... Diag
   Full preconditioner red. dimension   ....   250
 SOSCF                  CNVSOSCF        .... on
   Start iteration      SOSCFMaxIt      ....   150
   Startup grad/error   SOSCFStart      ....  0.003300
   Hessian update       SOSCFHessUp     .... L-BFGS
 Level Shifting         CNVShift        .... on
   Level shift para.    LevelShift      ....    0.2500
   Turn off err/grad.   ShiftErr        ....    0.0010
 Zerner damping         CNVZerner       .... off
 Static damping         CNVDamp         .... on
   Fraction old density DampFac         ....    0.7000
   Max. Damping (<1)    DampMax         ....    0.9800
   Min. Damping (>=0)   DampMin         ....    0.0000
   Turn off err/grad.   DampErr         ....    0.1000

SCF Procedure:
 Maximum # iterations   MaxIter         ....   125
 SCF integral mode      SCFMode         .... Direct
   Integral package                     .... SHARK and LIBINT hybrid scheme
 Reset frequency        DirectResetFreq ....    20
 Integral Threshold     Thresh          ....  1.000e-12 Eh
 Primitive CutOff       TCut            ....  1.000e-13 Eh

Convergence Tolerance:
 Convergence Check Mode ConvCheckMode   .... Total+1el-Energy
 Convergence forced     ConvForced      .... 0
 Energy Change          TolE            ....  1.000e-06 Eh
 1-El. energy change                    ....  1.000e-03 Eh
 Orbital Gradient       TolG            ....  5.000e-05
 Orbital Rotation angle TolX            ....  5.000e-05
 DIIS Error             TolErr          ....  1.000e-06

------------------------------
INITIAL GUESS: MODEL POTENTIAL
------------------------------
Loading Hartree-Fock densities                     ... done
Calculating cut-offs                               ... done
Initializing the effective Hamiltonian             ... done
Setting up the integral package (SHARK)            ... done
Starting the Coulomb interaction                   ... done (   0.5 sec)
Making the grid                                    ... done (   0.4 sec)
Mapping shells                                     ... done
Starting the XC term evaluation                    ... done (   0.2 sec)
  promolecular density results
     # of electrons  =    195.987808129
     EX              =   -158.398397402
     EC              =      0.235326835
     EX+EC           =   -158.163070567
Transforming the Hamiltonian                       ... done (   0.4 sec)
Diagonalizing the Hamiltonian                      ... done (   0.5 sec)
Back transforming the eigenvectors                 ... done (   0.3 sec)
Now organizing SCF variables                       ... done
                      ------------------
                      INITIAL GUESS DONE (   2.9 sec)
                      ------------------
             **** ENERGY FILE WAS UPDATED (compas3x_hc_c30h16_0pent_1_qz_riri.en.tmp) ****
Finished Guess after  20.1 sec
Maximum memory used throughout the entire GUESS-calculation: 284.5 MB


           ************************************************************
           *        Program running with 104 parallel MPI-processes   *
           *              working on a common directory               *
           ************************************************************

-------------------------------------------------------------------------------------------
                                      ORCA LEAN-SCF
                              memory conserving SCF solver
-------------------------------------------------------------------------------------------

----------------------------------------D-I-I-S--------------------------------------------
Iteration    Energy (Eh)           Delta-E    RMSDP     MaxDP     DIISErr   Damp  Time(sec)
-------------------------------------------------------------------------------------------
    1    -1147.9434929067501798     0.00e+00  5.62e-04  1.72e-01  1.49e-01  0.700  23.8
    2    -1147.7348041378008929     2.09e-01  8.07e-04  2.72e-01  1.32e-01  0.700  25.0
                               ***Turning on AO-DIIS***
    3    -1147.8660544537360693    -1.31e-01  2.91e-04  3.75e-02  7.75e-02  0.700  24.0
    4    -1148.1221681832239483    -2.56e-01  1.33e-03  3.03e-01  4.07e-02  0.000  24.2
    5    -1148.5377739499499512    -4.16e-01  1.71e-04  4.47e-02  3.18e-02  0.000  25.2
    6    -1148.5552711960535817    -1.75e-02  1.32e-04  3.42e-02  1.59e-02  0.000  23.7
    7    -1148.5596400260628798    -4.37e-03  9.59e-05  2.56e-02  4.89e-03  0.000  24.6
                              *** Initializing SOSCF ***
---------------------------------------S-O-S-C-F--------------------------------------
Iteration    Energy (Eh)           Delta-E    RMSDP     MaxDP     MaxGrad    Time(sec)
--------------------------------------------------------------------------------------
    8    -1148.5601882555106386    -5.48e-04  7.01e-05  2.11e-02  1.20e-03    26.6
    9    -1148.5602336189790549    -4.54e-05  3.47e-05  8.68e-03  2.52e-04    24.1
   10    -1148.5602390320782433    -5.41e-06  3.72e-05  1.21e-02  1.60e-04    22.2
   11    -1148.5602398165087834    -7.84e-07  8.47e-06  1.95e-03  1.03e-04    23.8
                 **** Energy Check signals convergence ****

               *****************************************************
               *                     SUCCESS                       *
               *           SCF CONVERGED AFTER  11 CYCLES          *
               *****************************************************

             **** ENERGY FILE WAS UPDATED (compas3x_hc_c30h16_0pent_1_qz_riri.en.tmp) ****

----------------
TOTAL SCF ENERGY
----------------

Total Energy       :      -1148.56023981650878 Eh          -31253.91304 eV

Components:
Nuclear Repulsion  :       2606.14638018013056 Eh           70916.84835 eV
Electronic Energy  :      -3754.70661999663935 Eh         -102170.76139 eV
One Electron Energy:      -6737.02862982008264 Eh         -183323.86902 eV
Two Electron Energy:       2982.32200982344330 Eh           81153.10763 eV

Virial components:
Potential Energy   :      -2294.67289371316474 Eh          -62441.22389 eV
Kinetic Energy     :       1146.11265389665596 Eh           31187.31084 eV
Virial Ratio       :          2.00213555439906

DFT components:
N(Alpha)           :       97.999990425871 electrons
N(Beta)            :       97.999990425871 electrons
N(Total)           :      195.999980851742 electrons
E(X)               :      -49.928645247083 Eh       
E(C)               :       -2.932746251062 Eh       
E(XC)              :      -52.861391498145 Eh       

---------------
SCF CONVERGENCE
---------------

  Last Energy change         ...    7.8443e-07  Tolerance :   1.0000e-06
  Last MAX-Density change    ...    1.9489e-03  Tolerance :   1.0000e-05
  Last RMS-Density change    ...    8.4711e-06  Tolerance :   1.0000e-06
  Last DIIS Error            ...    1.2048e-03  Tolerance :   1.0000e-06
  Last Orbital Gradient      ...    1.0338e-04  Tolerance :   5.0000e-05
  Last Orbital Rotation      ...    1.9837e-04  Tolerance :   5.0000e-05


----------------
ORBITAL ENERGIES
----------------

  NO   OCC          E(Eh)            E(eV) 
   0   2.0000     -10.839331      -294.9532 
   1   2.0000     -10.838334      -294.9261 
   2   2.0000     -10.835779      -294.8565 
   3   2.0000     -10.835748      -294.8557 
   4   2.0000     -10.835690      -294.8541 
   5   2.0000     -10.835646      -294.8529 
   6   2.0000     -10.832154      -294.7579 
   7   2.0000     -10.832153      -294.7579 
   8   2.0000     -10.831463      -294.7391 
   9   2.0000     -10.831462      -294.7391 
  10   2.0000     -10.830680      -294.7178 
  11   2.0000     -10.830678      -294.7177 
  12   2.0000     -10.830523      -294.7135 
  13   2.0000     -10.830522      -294.7135 
  14   2.0000     -10.823571      -294.5243 
  15   2.0000     -10.823566      -294.5242 
  16   2.0000     -10.822308      -294.4900 
  17   2.0000     -10.822304      -294.4899 
  18   2.0000     -10.822142      -294.4855 
  19   2.0000     -10.822137      -294.4853 
  20   2.0000     -10.822137      -294.4853 
  21   2.0000     -10.822133      -294.4852 
  22   2.0000     -10.821075      -294.4564 
  23   2.0000     -10.821073      -294.4564 
  24   2.0000     -10.821068      -294.4562 
  25   2.0000     -10.821067      -294.4562 
  26   2.0000     -10.820103      -294.4300 
  27   2.0000     -10.820100      -294.4299 
  28   2.0000     -10.820095      -294.4297 
  29   2.0000     -10.820093      -294.4297 
  30   2.0000      -1.104367       -30.0513 
  31   2.0000      -1.085577       -29.5400 
  32   2.0000      -1.050107       -28.5749 
  33   2.0000      -1.039174       -28.2774 
  34   2.0000      -1.034848       -28.1596 
  35   2.0000      -0.992846       -27.0167 
  36   2.0000      -0.982380       -26.7319 
  37   2.0000      -0.964612       -26.2484 
  38   2.0000      -0.960844       -26.1459 
  39   2.0000      -0.926991       -25.2247 
  40   2.0000      -0.919521       -25.0214 
  41   2.0000      -0.905595       -24.6425 
  42   2.0000      -0.890819       -24.2404 
  43   2.0000      -0.881444       -23.9853 
  44   2.0000      -0.876798       -23.8589 
  45   2.0000      -0.789146       -21.4738 
  46   2.0000      -0.785328       -21.3699 
  47   2.0000      -0.781666       -21.2702 
  48   2.0000      -0.775752       -21.1093 
  49   2.0000      -0.770076       -20.9548 
  50   2.0000      -0.762428       -20.7467 
  51   2.0000      -0.726525       -19.7698 
  52   2.0000      -0.711429       -19.3590 
  53   2.0000      -0.681593       -18.5471 
  54   2.0000      -0.663665       -18.0592 
  55   2.0000      -0.653331       -17.7781 
  56   2.0000      -0.648619       -17.6498 
  57   2.0000      -0.634063       -17.2537 
  58   2.0000      -0.628145       -17.0927 
  59   2.0000      -0.613466       -16.6933 
  60   2.0000      -0.605792       -16.4844 
  61   2.0000      -0.587461       -15.9856 
  62   2.0000      -0.586003       -15.9460 
  63   2.0000      -0.578740       -15.7483 
  64   2.0000      -0.554209       -15.0808 
  65   2.0000      -0.547791       -14.9062 
  66   2.0000      -0.542848       -14.7716 
  67   2.0000      -0.541997       -14.7485 
  68   2.0000      -0.535100       -14.5608 
  69   2.0000      -0.526645       -14.3307 
  70   2.0000      -0.522928       -14.2296 
  71   2.0000      -0.521779       -14.1983 
  72   2.0000      -0.512126       -13.9357 
  73   2.0000      -0.507272       -13.8036 
  74   2.0000      -0.504632       -13.7317 
  75   2.0000      -0.502168       -13.6647 
  76   2.0000      -0.492514       -13.4020 
  77   2.0000      -0.475201       -12.9309 
  78   2.0000      -0.473216       -12.8769 
  79   2.0000      -0.466265       -12.6877 
  80   2.0000      -0.455832       -12.4038 
  81   2.0000      -0.452599       -12.3158 
  82   2.0000      -0.450499       -12.2587 
  83   2.0000      -0.438370       -11.9287 
  84   2.0000      -0.433697       -11.8015 
  85   2.0000      -0.431082       -11.7303 
  86   2.0000      -0.416943       -11.3456 
  87   2.0000      -0.398473       -10.8430 
  88   2.0000      -0.394115       -10.7244 
  89   2.0000      -0.370226       -10.0744 
  90   2.0000      -0.356361        -9.6971 
  91   2.0000      -0.344579        -9.3765 
  92   2.0000      -0.327121        -8.9014 
  93   2.0000      -0.311800        -8.4845 
  94   2.0000      -0.284688        -7.7467 
  95   2.0000      -0.267436        -7.2773 
  96   2.0000      -0.265392        -7.2217 
  97   2.0000      -0.227481        -6.1901 
  98   0.0000      -0.007307        -0.1988 
  99   0.0000       0.021595         0.5876 
 100   0.0000       0.022784         0.6200 
 101   0.0000       0.040941         1.1141 
 102   0.0000       0.059956         1.6315 
 103   0.0000       0.064679         1.7600 
 104   0.0000       0.075119         2.0441 
 105   0.0000       0.075170         2.0455 
 106   0.0000       0.080416         2.1882 
 107   0.0000       0.088579         2.4104 
 108   0.0000       0.090253         2.4559 
*Only the first 10 virtual orbitals were printed.
-------
TIMINGS
-------

Total SCF time: 0 days 0 hours 4 min 45 sec 

Total time                  ....     285.941 sec
Sum of individual times     ....     285.767 sec  ( 99.9%)

SCF preparation             ....      16.035 sec  (  5.6%)
Fock matrix formation       ....     234.137 sec  ( 81.9%)
  Startup                   ....       2.323 sec  (  1.0% of F)
  RI-JK                     ....     208.507 sec  ( 89.1% of F)
  XC integration            ....      17.599 sec  (  7.5% of F)
    XC Preparation          ....       0.000 sec  (  0.0% of XC)
    Basis function eval.    ....       1.195 sec  (  6.8% of XC)
    Density eval.           ....       3.597 sec  ( 20.4% of XC)
    XC-Functional eval.     ....       0.034 sec  (  0.2% of XC)
    XC-Potential eval.      ....       4.862 sec  ( 27.6% of XC)
Diagonalization             ....       0.000 sec  (  0.0%)
Density matrix formation    ....       4.871 sec  (  1.7%)
Total Energy calculation    ....       1.449 sec  (  0.5%)
Population analysis         ....       0.000 sec  (  0.0%)
Orbital Transformation      ....       3.817 sec  (  1.3%)
Orbital Orthonormalization  ....       0.000 sec  (  0.0%)
DIIS solution               ....      20.106 sec  (  7.0%)
SOSCF solution              ....       5.210 sec  (  1.8%)
Finished LeanSCF after 286.4 sec

Maximum memory used throughout the entire LEANSCF-calculation: 884.1 MB


           ************************************************************
           *        Program running with 104 parallel MPI-processes   *
           *              working on a common directory               *
           ************************************************************

------------------------------------------------------------------------------
                                ORCA  MP2 
------------------------------------------------------------------------------


-------------
RI-MP2 ENERGY
-------------
Dimension of the orbital basis            ... 2190
Dimension of the AuxC basis               ... 5126
Memory devoted to MP2                     ... 4096 MB   
Data format for matrix containers         ... DOUBLE
Compression type for matrix containers    ... UNCOMPRESSED
Scaling for aa/bb pairs                   ...   5.710e-02
Scaling for ab pairs                      ...   5.979e-01
Overall scaling of the MP2 energy         ...   1.000e+00

-----------------------
SHARK RI TRANSFORMATION
-----------------------

Number of basis functions                ...   2190
Number of aux functions                  ...   5126
Number of operators                      ...      1
Generation of IJK                        ... NO
Generation of IAK                        ... YES
Generation of ABK                        ... NO
Orbital Range Operator  0:    0-  97 to   98-2189

Aux basis identifier                     ...   AUXC
Contraction scheme used                  ... SEGMENTED
Do orthogonalization                     ... YES
All operator combinations                ... NO
Transpose (ia|K)                         ... NO
Integral generator used                  ... LIBINT
Starting integral generation + trafo... 
Half trafo (segmented) done. Total time = 10.5 sec. integrals=  2.1 sec trafo=  6.3 sec
Integral generation and half transformation done ( 10.5 sec)

Reading or making V^(-1/2)          ... done (  0.4 sec)
Sorting IAK integrals               ... done ( 14.6 sec)

SHARK RI integral transformation done. Total time = 25.7 sec.

Opening buffers                              ... done

Starting loop over batches of integrals:

Operator 0  - window                       ... (  0- 97)x( 98-2189)
Operator 0  - Memory available             ...  4096 MB
Operator 0  - Memory needed per MO         ...  81.8 MB
Operator 0  - Number of orbitals per batch ... 1
Operator 0  - Number of batches            ... 1

OPERATOR  0   PASS   0:  MOs     0 ...    0 +    1 ...    1 +    2 ...    2 +    3 ...    3
                            +    4 ...    4 +    5 ...    5 +    6 ...    6 +    7 ...    7
                            +    8 ...    8 +    9 ...    9 +   10 ...   10 +   11 ...   11
                            +   12 ...   12 +   13 ...   13 +   14 ...   14 +   15 ...   15
                            +   16 ...   16 +   17 ...   17 +   18 ...   18 +   19 ...   19
                            +   20 ...   20 +   21 ...   21 +   22 ...   22 +   23 ...   23
                            +   24 ...   24 +   25 ...   25 +   26 ...   26 +   27 ...   27
                            +   28 ...   28 +   29 ...   29 +   30 ...   30 +   31 ...   31
                            +   32 ...   32 +   33 ...   33 +   34 ...   34 +   35 ...   35
                            +   36 ...   36 +   37 ...   37 +   38 ...   38 +   39 ...   39
                            +   40 ...   40 +   41 ...   41 +   42 ...   42 +   43 ...   43
                            +   44 ...   44 +   45 ...   45 +   46 ...   46 +   47 ...   47
                            +   48 ...   48 +   49 ...   49 +   50 ...   50 +   51 ...   51
                            +   52 ...   52 +   53 ...   53 +   54 ...   54 +   55 ...   55
                            +   56 ...   56 +   57 ...   57 +   58 ...   58 +   59 ...   59
                            +   60 ...   60 +   61 ...   61 +   62 ...   62 +   63 ...   63
                            +   64 ...   64 +   65 ...   65 +   66 ...   66 +   67 ...   67
                            +   68 ...   68 +   69 ...   69 +   70 ...   70 +   71 ...   71
                            +   72 ...   72 +   73 ...   73 +   74 ...   74 +   75 ...   75
                            +   76 ...   76 +   77 ...   77 +   78 ...   78 +   79 ...   79
                            +   80 ...   80 +   81 ...   81 +   82 ...   82 +   83 ...   83
                            +   84 ...   84 +   85 ...   85 +   86 ...   86 +   87 ...   87
                            +   88 ...   88 +   89 ...   89 +   90 ...   90 +   91 ...   91
                            +   92 ...   92 +   93 ...   93 +   94 ...   94 +   95 ...   95
                            +   96 ...   96 +   97 ...   97
  Reading integrals       ... ok
Time spent in pair loops =    87.372 sec

-----------------------------------------------
 RI-MP2 CORRELATION ENERGY:     -2.951521067 Eh
-----------------------------------------------


-------
TIMINGS
-------

Total time                :  117.253 sec
Integral trafo            :   26.155 sec ( 22.3%)
I/O of integrals          :    0.112 sec (  0.1%)
K(i,j) operators          :    0.878 sec (  0.7%)
T(i,j) pair energies      :    0.096 sec (  0.1%)
V**(-1/2)                 :    3.724 sec (  3.2%)


---------------------------------------
MP2 TOTAL ENERGY:    -1151.511760884 Eh
---------------------------------------

Maximum memory used throughout the entire MP2-calculation: 588.3 MB


-------------------------------------------------------------------------------
                          DFT DISPERSION CORRECTION                            
                                                                               
                                DFTD4 V3.4.0                                   
-------------------------------------------------------------------------------
The REV-DSD-PBEP86-2021 functional is recognized
A user input s6-coefficient scaling factor has been recognized
A user input a1-coefficient scaling factor has been recognized
A user input s8-coefficient scaling factor has been recognized
A user input a2-coefficient scaling factor has been recognized
A user input s9-coefficient scaling factor has been recognized
Active option DFTDOPT                   ...         5   

-------------------------   ----------------
Dispersion correction           -0.050286840
-------------------------   ----------------


-------------------------   --------------------
FINAL SINGLE POINT ENERGY     -1151.562047723929
-------------------------   --------------------



           ************************************************************
           *        Program running with 104 parallel MPI-processes   *
           *              working on a common directory               *
           ************************************************************

------------------------------------------------------------------------------
                              ORCA PROPERTY CALCULATIONS
------------------------------------------------------------------------------

GBWName                                 ... compas3x_hc_c30h16_0pent_1_qz_riri.gbw
Number of atoms                         ...     46
Number of basis functions               ...   2190
Max core memory                         ...   1024 MB

Electric properties:
Dipole moment                           ... YES
Quadrupole moment                       ...  NO
Static polarizability (Dipole/Dipole)   ...  NO
Static polarizability (Dipole/Quad.)    ...  NO
Static polarizability (Quad./Quad.)     ...  NO
Static polarizability (Velocity)        ...  NO

Atomic electric properties:
Dipole moment                           ...  NO
Quadrupole moment                       ...  NO
Static polarizability                   ...  NO

Choice of electric origin               ... Center of mass
Position of electric origin             ...     0.000007    -0.000043    -0.000051

General magnetic properties:
Magnetizability                         ...  NO

EPR properties:
g-Tensor (aka g-matrix)                 ...  NO
Zero-Field splitting spin-orbit         ...  NO
Zero-field splitting spin-spin          ...  NO
Hyperfine couplings                     ...  NO (   0 nuclei)
Quadrupole couplings                    ...  NO (   0 nuclei)
Contact density                         ...  NO (   0 nuclei)

NMR properties:
Chemical shifts                         ...  NO (   0 nuclei)
Spin-rotation constants                 ...  NO (   0 nuclei)
Spin-spin couplings                     ...  NO (   0 nuclei,    0 pairs)

Choice of magnetic origin               ... GIAO
Position of magnetic origin             ...     0.000000     0.000000     0.000000

Properties with geometric perturbations:
SCF Hessian                             ...  NO
IR spectrum                             ...  NO
VCD spectrum                            ...  NO
X-ray spectroscopy properties:
SCF XES/XAS/RIXS spectra                ...  NO


-------------
DIPOLE MOMENT
-------------

Method             : SCF
Type of density    : Electron Density
Multiplicity       :   1
Irrep              :   0
Energy             : -1148.5602398165087834 Eh
Relativity type    : 
Basis              : AO
                                X                 Y                 Z
Electronic contribution:     -0.000859253       0.000764415      -0.001155074
Nuclear contribution   :      0.000855515      -0.000970713       0.001259172
                        -----------------------------------------
Total Dipole Moment    :     -0.000003739      -0.000206298       0.000104099
                        -----------------------------------------
Magnitude (a.u.)       :      0.000231104
Magnitude (Debye)      :      0.000587421



--------------------
Rotational spectrum 
--------------------
 
Rotational constants in cm-1:             0.009560             0.004796             0.003249 
Rotational constants in MHz :           286.604152           143.785244            97.410069 

Dipole components along the rotational axes: 
x,y,z [a.u.] :    -0.000181    -0.000057     0.000132 
x,y,z [Debye]:    -0.000460    -0.000145     0.000335 

 

Dipole moment calculation done in   0.3 sec 

Maximum memory used throughout the entire PROP-calculation: 314.6 MB

--------------------------------
SUGGESTED CITATIONS FOR THIS RUN
--------------------------------

Below you find a list of papers that are relevant to this ORCA run
We neither can nor want to force you to cite these papers, but we appreciate if you do
You receive ORCA, which is the product of decades of hard work by many enthusiastic individuals, for free
The only thing we kindly ask in return is that you cite our papers,
We deeply appreciate it, if you show your appreciation for ORCA by not just citing the generic ORCA reference.

Please note that relegating all ORCA citations to the supporting information does *not* help us.
SI sections are not indexed - citations you put there will not count into any citation statistics
But we need these citations in order to attract the funding resources that allow us to do what we are doing

Therefore, if you are a happy ORCA user, please consider citing a few of the papers listed below in the main body of your paper

In addition to the list printed below, the program has created the file compas3x_hc_c30h16_0pent_1_qz_riri.bibtex that contains the list in bibtex format
You can import this file easily into all common literature databanks and citation aid programs


List of essential papers. We consider these as the minimum necessary citations

  1. Neese,F.
     Software update: the ORCA program system, version 5.0
     WIRES Comput. Molec. Sci., 2022 12(1)e1606
     doi.org/10.1002/wcms.1606

List of papers to cite with high priority. The work reported in these papers was absolutely
necessary for this run to complete.
Our perspective: the developers of density functionals and basis sets usually get cited in chemistry papers
Good! But without the algorithms to do something with them, the functionals or basis sets would not do anything.
Hence, in our opinion, the algorithm design and method developments papers are equally worthy of getting cited

  1. Neese,F.
     An improvement of the resolution of the identity approximation for the formation of the Coulomb matrix
     J. Comp. Chem., 2003 24(14)1740-1747
     doi.org/10.1002/jcc.10318
  2. Kossmann,S.; Neese,F.
     Comparison of two efficient approximate Hartee-Fock approaches
     Chem. Phys. Lett., 2009 481 240-243
     doi.org/10.1016/j.cplett.2009.09.073
  3. Neese,F.
     The SHARK Integral Generation and Digestion System
     J. Comp. Chem., 2022  1-16
     doi.org/10.1002/jcc.26942
  4. Caldeweyher,E.; Bannwarth,C.; Grimme,S.
     Extension of the D3 dispersion coefficient model
     J. Chem. Phys., 2017 147 034112
     doi.org/10.1063/1.4993215
  5. Caldeweyher,E.; Ehlert,S.; Hansen,A.; Neugebauer,H.; Spicher,S.; Bannwarth,C.; Grimme,S.
     A generally applicable atomic-charge dependent London dispersion correction
     J. Chem. Phys., 2019 150 154122
     doi.org/10.1063/1.5090222
  6. Caldeweyher,E.; Mewes,J.; Ehlert,S.; Grimme,S.
     Extension and evaluation of the D4 London-dispersion model for periodic systems
     Phys. Chem. Chem. Phys., 2020 22(16)8499-8512
     doi.org/10.1039/D0CP00502A
  7. Wittmann,L.; Gordiy,I.; Friede,M.; Helmich-Paris,B.; Grimme,S.; Hansen,A.; Bursch,M.
     Extension of the D3 and D4 London Dispersion Corrections to the full Actinides Series
     Phys. Chem. Chem. Phys., 2024 26(32)21379-21394
     doi.org/https://doi.org/10.1039/D4CP01514B 

List of suggested additional citations. These are papers that are important in the 'surrounding' of 
of this run, or papers that preceded the highly important papers. If you like your results we are grateful for a citation.

  1. Neese,F.
     The ORCA program system
     WIRES Comput. Molec. Sci., 2012 2(1)73-78
     doi.org/10.1002/wcms.81
  2. Neese,F.
     Software update: the ORCA program system, version 4.0
     WIRES Comput. Molec. Sci., 2018 8(1)1-6
     doi.org/10.1002/wcms.1327
  3. Neese,F.; Wennmohs,F.; Becker,U.; Riplinger,C.
     The ORCA quantum chemistry program package
     J. Chem. Phys., 2020 152 Art. No. L224108
     doi.org/10.1063/5.0004608

List of optional additional citations

  1. Neese,F.
     Approximate second-order SCF convergence for spin unrestricted wavefunctions
     Chem. Phys. Lett., 2000 325(1-3)93-98
     doi.org/10.1016/s0009-2614(00)00662-x

Timings for individual modules:

Sum of individual times          ...      490.707 sec (=   8.178 min)
Startup calculation              ...       28.390 sec (=   0.473 min)   5.8 %
SCF iterations                   ...      309.159 sec (=   5.153 min)  63.0 %
Property calculations            ...       17.951 sec (=   0.299 min)   3.7 %
MP2 module                       ...      135.207 sec (=   2.253 min)  27.6 %
                             ****ORCA TERMINATED NORMALLY****
TOTAL RUN TIME: 0 days 0 hours 8 minutes 27 seconds 418 msec
