
                                 *****************
                                 * O   R   C   A *
                                 *****************

                                            #,                                       
                                            ###                                      
                                            ####                                     
                                            #####                                    
                                            ######                                   
                                           ########,                                 
                                     ,,################,,,,,                         
                               ,,#################################,,                 
                          ,,##########################################,,             
                       ,#########################################, ''#####,          
                    ,#############################################,,   '####,        
                  ,##################################################,,,,####,       
                ,###########''''           ''''###############################       
              ,#####''   ,,,,##########,,,,          '''####'''          '####       
            ,##' ,,,,###########################,,,                        '##       
           ' ,,###''''                  '''############,,,                           
         ,,##''                                '''############,,,,        ,,,,,,###''
      ,#''                                            '''#######################'''  
     '                                                          ''''####''''         
             ,#######,   #######,   ,#######,      ##                                
            ,#'     '#,  ##    ##  ,#'     '#,    #''#        ,####,   ,####,        
            ##       ##  ##   ,#'  ##            #'  '#       #'       #'  '#        
            ##       ##  #######   ##           ,######,      #####,   #    #        
            '#,     ,#'  ##    ##  '#,     ,#' ,#      #,     #,   #   #,  ,#        
             '#######'   ##     ##  '#######'  #'      '#     '####' # '####'        



                #########################################################
                #                        -***-                          #
                #          Department of theory and spectroscopy        #
                #                                                       #
                #                      Frank Neese                      #
                #                                                       #
                #     Directorship, Architecture, Infrastructure        #
                #                    SHARK, DRIVERS                     #
                #        Core code/Algorithms in most modules           #
                #                                                       #
                #        Max Planck Institute fuer Kohlenforschung      #
                #                Kaiser Wilhelm Platz 1                 #
                #                 D-45470 Muelheim/Ruhr                 #
                #                      Germany                          #
                #                                                       #
                #                  All rights reserved                  #
                #                        -***-                          #
                #########################################################


                         Program Version 6.0.1  -  RELEASE   -


 With contributions from (in alphabetic order):
[Max-Planck-Institut fuer Kohlenforschung]                               
  Daniel Aravena         : Magnetic Suceptibility                        
  Michael Atanasov       : Ab Initio Ligand Field Theory (pilot matlab implementation)
  Alexander A. Auer      : GIAO ZORA, VPT2 properties, NMR spectrum      
  Ute Becker             : All parallelization in ORCA, NUMFREQ, NUMCALC 
  Giovanni Bistoni       : ED, misc. LED, open-shell LED, HFLD           
  Martin Brehm           : Molecular dynamics                            
  Dmytro Bykov           : pre 5.0 version of the SCF Hessian            
  Marcos Casanova-Páez   : Triplet and SCS-CIS(D). UHF-(DLPNO)-IP/EA/STEOM-CCSD. UHF-CVS-IP/STEOM-CCSD   
  Vijay G. Chilkuri      : MRCI spin determinant printing, contributions to CSF-ICE 
  Pauline Colinet        : FMM embedding                                 
  Dipayan Datta          : RHF DLPNO-CCSD density                        
  Achintya Kumar Dutta   : EOM-CC, STEOM-CC                              
  Nicolas Foglia         : Exact transition moments, OPA infrastructure, MCD improvements    
  Dmitry Ganyushin       : Spin-Orbit,Spin-Spin,Magnetic field MRCI      
  Miquel Garcia-Rates    : C-PCM and meta-GGA Hessian, CCSD/C-PCM, Gaussian charge scheme 
  Tiago L. C. Gouveia    : GS-ROHF, GS-ROCIS                             
  Yang Guo               : DLPNO-NEVPT2, F12-NEVPT2, CIM, IAO-localization        
  Andreas Hansen         : Spin unrestricted coupled pair/coupled cluster methods 
  Ingolf Harden          : AUTO-CI MPn and infrastructure                
  Benjamin Helmich-Paris : MC-RPA, TRAH-(SCF,CASSCF), AVAS, COSX integrals, SCF dyn. polar. 
  Lee Huntington         : MR-EOM, pCC                                   
  Robert Izsak           : Overlap fitted RIJCOSX, COSX-SCS-MP3, EOM     
  Riya Kayal             : Wick's Theorem for AUTO-CI, AUTO-CI UHF-CCSDT 
  Emily Kempfer          : AUTO-CI, RHF CISDT and CCSDT                  
  Christian Kollmar      : KDIIS, OOCD, Brueckner-CCSD(T), CCSD density, CASPT2, CASPT2-K, improved NEVPT2 
  Axel Koslowski         : Symmetry handling                             
  Simone Kossmann        : meta-GGA functionals, TD-DFT gradient, OOMP2, (MP2 Hessian; deprecated post 5.0) 
  Lucas Lang             : DCDCAS                                        
  Marvin Lechner         : AUTO-CI (C++ implementation), FIC-MRCC        
  Spencer Leger          : CASSCF response                               
  Dagmar Lenk            : GEPOL surface, SMD, ORCA-2-JSON               
  Dimitrios Liakos       : Extrapolation schemes; Compound Job, initial MDCI parallelization 
  Dimitrios Manganas     : Further ROCIS development; embedding schemes. LFT, Crystal Embedding 
  Dimitrios Pantazis     : SARC Basis sets                               
  Anastasios Papadopoulos: AUTO-CI, single reference methods and gradients 
  Taras Petrenko         : pre 6.0 DFT Hessian and TD-DFT gradient, (ASA, deprecated), ECA, 1-Electron XAS/XES, NRVS 
  Peter Pinski           : DLPNO-MP2, DLPNO-MP2 Gradient                 
  Christoph Reimann      : Effective Core Potentials                     
  Marius Retegan         : Local ZFS, SOC                                
  Christoph Riplinger    : Optimizer, TS searches, QM/MM, DLPNO-CCSD(T), (RO)-DLPNO pert. Triples 
  Michael Roemelt        : Original ROCIS implementation                 
  Masaaki Saitow         : Open-shell DLPNO-CCSD energy and density      
  Barbara Sandhoefer     : DKH picture change effects                    
  Kantharuban Sivalingam : CASSCF convergence/infrastructure, NEVPT2 and variants, FIC-MRCI 
  Bernardo de Souza      : ESD, SOC TD-DFT                               
  Georgi L. Stoychev     : AutoAux, RI-MP2 NMR, DLPNO-MP2 response, X2C  
  Van Anh Tran           : RI-MP2 g-tensors                              
  Willem Van den Heuvel  : Paramagnetic NMR                              
  Zikuan Wang            : NOTCH, Electric field optimization            
  Frank Wennmohs         : Technical directorship and infrastructure     
  Hang Xu                : AUTO-CI-Response properties                   
                                                                         
[FACCTs GmbH]                                                            
  Markus Bursch, Miquel Garcia-Rates, Christoph Riplinger, Bernardo de Souza, Georgi L. Stoychev 
                                                                 
  APM, Basis sets (HGBS, AHGBS, def-TZVP (Ac-Lr), def2-XVPD (La-Lu)), CI-OPT, improved COSX, DLPNO-Multilevel,           
  DOCKER, DRACO, updates on ESD, GOAT, IRC, LR-CPCM, MBIS, meta-GGA TD-DFT gradient, ML-optimized integration grids, 
  MM, NACMEs, nearIR, NEB, NEB-TS, NL-DFT gradient (VV10), 2- and 3-layer-ONIOM, interface openCOSMO-RS, QMMM,   
  Crystal-QMMM, SF, symmetry and pop. for TD-DFT, r2SCAN hybrids, SOLVATOR                                   
                                                                         
[Other institutions]                                                     
  V. Asgeirsson          : NEB                                           
  Christoph Bannwarth    : sTDA-DFT, sTD-DFT, PBEh-3c, B97-3c, D3        
  Sebastian Ehlert       : rSCAN, r2SCAN, r2SCAN-3c, D4, dhf basis sets  
  Marvin Friede          : D4 for Fr, Ra, Ac-Lr                          
  Lars Goerigk           : TD-DFT with DH, B97 family of functionals     
  Stefan Grimme          : VdW corrections, initial TS optimization, DFT functionals, gCP, sTDA/sTD-DF 
  Waldemar Hujo          : DFT-NL                                        
  H. Jonsson             : NEB                                           
  Holger Kruse           : gCP                                           
  Marcel Mueller         : wB97X-3c, vDZP basis set                      
  Hagen Neugebauer       : wr2SCAN                                       
  Tobias Risthaus        : range-separated hybrid DFT                    
  Lukas Wittmann         : regularized MP2, r2SCAN double-hybrids, wr2SCAN        
                                                                         
We gratefully acknowledge several colleagues who have allowed us to      
interface, adapt or use parts of their codes:                            
  Ed Valeev, F. Pavosevic, A. Kumar             : LibInt (2-el integral package), F12 methods 
  Garnet Chan, S. Sharma, J. Yang, R. Olivares  : DMRG                   
  Ulf Ekstrom                                   : XCFun DFT Library      
  Mihaly Kallay                                 : mrcc  (arbitrary order and MRCC methods)
  Frank Weinhold                                : gennbo (NPA and NBO analysis)           
  Simon Mueller                                 : openCOSMO-RS                            
  Christopher J. Cramer and Donald G. Truhlar   : smd solvation model                     
  S Lehtola, MJT Oliveira, MAL Marques          : LibXC Library                           
  Liviu Ungur et al                             : ANISO software                          


 Your calculation uses the libint2 library for the computation of 2-el integrals
 For citations please refer to: http://libint.valeyev.net

 Your ORCA version has been built with support for libXC version: 6.2.2
 For citations please refer to: https://libxc.gitlab.io

 This ORCA versions uses:
   CBLAS   interface :  Fast vector & matrix operations
   LAPACKE interface :  Fast linear algebra routines
   SCALAPACK package :  Parallel linear algebra routines
   Shared memory     :  Shared parallel matrices
   BLAS/LAPACK       :  OpenBLAS 0.3.27  USE64BITINT DYNAMIC_ARCH NO_AFFINITY SapphireRapids SINGLE_THREADED
        Core in use  :  SapphireRapids
   Copyright (c) 2011-2014, The OpenBLAS Project


Warning! Weird basis set assignment to AuxJK basis!


***************************************
The coordinates will be read from file: /g/data/kx58/rs2200/dhdft/inputs/compas3D-xyzs/hc_c28h14_0pent_1.xyz
***************************************


Your calculation utilizes the atom-pairwise dispersion correction
based on EEQ partial charges (D4)


================================================================================

----- Orbital basis set information -----
Your calculation utilizes the basis: def2-QZVPP
   F. Weigend and R. Ahlrichs, Phys. Chem. Chem. Phys. 7, 3297 (2005).

----- AuxC basis set information -----
Your calculation utilizes the auxiliary basis: def2-QZVPP/C
  H-La, Hf-Rn : A. Hellweg, C. Hattig, S. Hofener and W. Klopper, Theor. Chem. Acc. 117, 587 (2007).
        Ce-Lu : J. Chmela and M. E. Harding, Mol. Phys. (2018).

----- AuxJK basis set information -----
Your calculation utilizes the auxiliary basis: def2-QZVPP/C
  H-La, Hf-Rn : A. Hellweg, C. Hattig, S. Hofener and W. Klopper, Theor. Chem. Acc. 117, 587 (2007).
        Ce-Lu : J. Chmela and M. E. Harding, Mol. Phys. (2018).

================================================================================
                                        WARNINGS
                       Please study these warnings very carefully!
================================================================================


WARNING: No MP2 level density has been requested!
         To calculate MP2 level properties use
         %mp2 Density relaxed end
         or
         %mp2 Density unrelaxed end
         Otherwise for double-hybrid DFT only the energy is correct!

================================================================================
                                       INPUT FILE
================================================================================
NAME = compas3D_hc_c28h14_0pent_1_qz_riri.inp
|  1> ! RKS revDSD-PBEP86-D4/2021 defgrid3  RIJK NOPOP NoFrozencore NoUseSym
|  2> 
|  3> %basis
|  4> Basis "def2-QZVPP"
|  5> AuxJK "def2-QZVPP/C"
|  6> AuxC "def2-QZVPP/C"
|  7> end
|  8> 
|  9> %method
| 10> ScalHFX 0.69
| 11> ScalDFX 0.31
| 12> ScalDFC 0.4038
| 13> ScalLDAC 0.4038
| 14> 
| 15> D4S6 0.4612
| 16> D4S8 0.0
| 17> D4A1 0.44
| 18> D4A2 3.60
| 19> end
| 20> 
| 21> %mp2
| 22> PS 0.5979
| 23> PT 0.0571
| 24> 
| 25> end
| 26> 
| 27> %pal
| 28> nprocs 104
| 29> end
| 30> 
| 31> *XYZFILE 0 1 /g/data/kx58/rs2200/dhdft/inputs/compas3D-xyzs/hc_c28h14_0pent_1.xyz
| 32> 
| 33>                          ****END OF INPUT****
================================================================================

                       ****************************
                       * Single Point Calculation *
                       ****************************

---------------------------------
CARTESIAN COORDINATES (ANGSTROEM)
---------------------------------
  C      1.523800   -1.106461    0.000414
  C      0.169515   -0.708057   -0.000490
  C     -0.169752    0.708010    0.000503
  C      0.856966    1.676971    0.000129
  C      2.242042    1.295152   -0.000850
  C      2.585478   -0.138355    0.001925
  C      1.851263   -2.502336    0.000488
  C      0.825677   -3.447569   -0.002322
  C     -0.516893   -3.069781   -0.004246
  C     -0.857203   -1.677016   -0.002305
  C     -2.242280   -1.295198   -0.002838
  C     -2.585716    0.138305    0.001811
  C     -1.524038    1.106411    0.001818
  C     -1.851501    2.502285    0.003780
  C     -0.825916    3.447522    0.002403
  C      0.516655    3.069737    0.000085
  C      3.890455   -0.585653    0.006254
  C      4.209950   -1.962672    0.006917
  C      3.219548   -2.901111    0.003557
  C     -1.556060   -4.045199   -0.008215
  C     -2.864187   -3.657358   -0.010594
  C     -3.203136   -2.285043   -0.008005
  C     -3.890694    0.585597    0.006446
  C     -4.210189    1.962614    0.008974
  C     -3.219787    2.901056    0.007159
  C      1.555823    4.045159   -0.002489
  C      2.863950    3.657321   -0.005384
  C      3.202899    2.285003   -0.004682
  H      1.080414   -4.509776   -0.003023
  H     -1.080653    4.509728    0.003115
  H      4.712898    0.128251    0.009441
  H      5.258537   -2.266370    0.010046
  H      3.454762   -3.967379    0.003599
  H     -1.282338   -5.102200   -0.009745
  H     -3.661690   -4.402903   -0.014447
  H     -4.259512   -2.020549   -0.010354
  H     -4.713139   -0.128309    0.008381
  H     -5.258778    2.266306    0.012280
  H     -3.455001    3.967323    0.008645
  H      1.282102    5.102161   -0.002564
  H      3.661452    4.402872   -0.008194
  H      4.259274    2.020511   -0.007423

----------------------------
CARTESIAN COORDINATES (A.U.)
----------------------------
  NO LB      ZA    FRAG     MASS         X           Y           Z
   0 C     6.0000    0    12.011    2.879565   -2.090907    0.000783
   1 C     6.0000    0    12.011    0.320337   -1.338034   -0.000927
   2 C     6.0000    0    12.011   -0.320785    1.337945    0.000951
   3 C     6.0000    0    12.011    1.619430    3.169016    0.000244
   4 C     6.0000    0    12.011    4.236846    2.447483   -0.001606
   5 C     6.0000    0    12.011    4.885846   -0.261453    0.003637
   6 C     6.0000    0    12.011    3.498380   -4.728730    0.000922
   7 C     6.0000    0    12.011    1.560304   -6.514962   -0.004388
   8 C     6.0000    0    12.011   -0.976787   -5.801046   -0.008023
   9 C     6.0000    0    12.011   -1.619878   -3.169102   -0.004355
  10 C     6.0000    0    12.011   -4.237295   -2.447569   -0.005363
  11 C     6.0000    0    12.011   -4.886295    0.261358    0.003421
  12 C     6.0000    0    12.011   -2.880014    2.090814    0.003436
  13 C     6.0000    0    12.011   -3.498830    4.728634    0.007144
  14 C     6.0000    0    12.011   -1.560754    6.514873    0.004542
  15 C     6.0000    0    12.011    0.976337    5.800963    0.000160
  16 C     6.0000    0    12.011    7.351895   -1.106724    0.011818
  17 C     6.0000    0    12.011    7.955652   -3.708913    0.013070
  18 C     6.0000    0    12.011    6.084065   -5.482305    0.006722
  19 C     6.0000    0    12.011   -2.940527   -7.644319   -0.015524
  20 C     6.0000    0    12.011   -5.412529   -6.911405   -0.020020
  21 C     6.0000    0    12.011   -6.053050   -4.318105   -0.015126
  22 C     6.0000    0    12.011   -7.352346    1.106618    0.012181
  23 C     6.0000    0    12.011   -7.956105    3.708803    0.016958
  24 C     6.0000    0    12.011   -6.084516    5.482202    0.013529
  25 C     6.0000    0    12.011    2.940079    7.644242   -0.004704
  26 C     6.0000    0    12.011    5.412081    6.911335   -0.010174
  27 C     6.0000    0    12.011    6.052602    4.318030   -0.008849
  28 H     1.0000    0     1.008    2.041687   -8.522241   -0.005713
  29 H     1.0000    0     1.008   -2.042138    8.522152    0.005886
  30 H     1.0000    0     1.008    8.906086    0.242359    0.017841
  31 H     1.0000    0     1.008    9.937195   -4.282818    0.018985
  32 H     1.0000    0     1.008    6.528554   -7.497260    0.006801
  33 H     1.0000    0     1.008   -2.423268   -9.641761   -0.018415
  34 H     1.0000    0     1.008   -6.919591   -8.320282   -0.027301
  35 H     1.0000    0     1.008   -8.049311   -3.818284   -0.019566
  36 H     1.0000    0     1.008   -8.906541   -0.242469    0.015839
  37 H     1.0000    0     1.008   -9.937649    4.282698    0.023206
  38 H     1.0000    0     1.008   -6.529005    7.497155    0.016336
  39 H     1.0000    0     1.008    2.422822    9.641686   -0.004845
  40 H     1.0000    0     1.008    6.919141    8.320222   -0.015484
  41 H     1.0000    0     1.008    8.048862    3.818212   -0.014027

--------------------------------
INTERNAL COORDINATES (ANGSTROEM)
--------------------------------
 C      0   0   0     0.000000000000     0.00000000     0.00000000
 C      1   0   0     1.411670748691     0.00000000     0.00000000
 C      2   1   0     1.456141864743   119.86596777     0.00000000
 C      3   2   1     1.411748756975   119.86906431     0.10473270
 C      4   3   2     1.436740728347   121.24598857     0.00000000
 C      1   2   3     1.436798763865   121.24665846     0.00000000
 C      1   2   3     1.433771367955   119.59528166   179.95130707
 C      7   1   2     1.394739975150   119.46274567     0.09367265
 C      8   7   1     1.394712804622   121.61865587   359.95316976
 C      2   1   3     1.411748700544   120.26497337   180.00233508
 C     10   2   1     1.436740846804   121.24605542   179.98064967
 C     11  10   2     1.474075915742   118.88436979   359.85514912
 C      3   2   1     1.411670887744   119.86594295   180.10388592
 C     13   3   2     1.433771476774   119.59526947   179.95457222
 C     14  13   3     1.394740110216   119.46275999     0.09241507
 C     15  14  13     1.394712811466   121.61862716   359.95501235
 C      6   1   2     1.379514151192   118.71967285   179.83438745
 C     17   6   1     1.413597779724   121.98234186     0.11042480
 C     18  17   6     1.364394969694   120.39405458     0.00000000
 C      9   8   7     1.425244858447   121.09637726   179.94821240
 C     20   9   8     1.364412896893   120.29821513   180.02641785
 C     11  10   2     1.379516221666   118.73676841   179.84015802
 C     12  11  10     1.379514025111   122.39281066   180.23732503
 C     23  12  11     1.413597974775   121.98238584   180.09123898
 C     24  23  12     1.364394967747   120.39402391     0.00000000
 C     16  15  14     1.425244828712   121.09642199   179.94438027
 C     26  16  15     1.364413054948   120.29825179   180.03149828
 C      5   4   3     1.379516410865   118.73670633   179.83392704
 H      8   7   1     1.092324916282   119.17939978   179.95373017
 H     15  14  13     1.092324895900   119.17940297   179.95232263
 H     17   6   1     1.089073693568   120.12154018   180.11936687
 H     18  17   6     1.091685500198   119.21489870   179.97797812
 H     19  18  17     1.091903477999   121.01676626   179.97348387
 H     20   9   8     1.091868089236   118.66923905     0.00000000
 H     21  20   9     1.091725047501   120.41432595   179.95060299
 H     22  11  10     1.088986643560   120.09217629   180.11192939
 H     23  12  11     1.089073695774   120.12162012     0.09786341
 H     24  23  12     1.091685395835   119.21489173   179.97852951
 H     25  24  23     1.091903588253   121.01678206   179.97327038
 H     26  16  15     1.091868065115   118.66924582     0.00000000
 H     27  26  16     1.091725176192   120.41423923   179.94918647
 H     28   5   4     1.088986726422   120.09209545   180.11711891

---------------------------
INTERNAL COORDINATES (A.U.)
---------------------------
 C      0   0   0     0.000000000000     0.00000000     0.00000000
 C      1   0   0     2.667671106293     0.00000000     0.00000000
 C      2   1   0     2.751709336502   119.86596777     0.00000000
 C      3   2   1     2.667818520587   119.86906431     0.10473270
 C      4   3   2     2.715046502026   121.24598857     0.00000000
 C      1   2   3     2.715156173261   121.24665846     0.00000000
 C      1   2   3     2.709435224092   119.59528166   179.95130707
 C      7   1   2     2.635676581065   119.46274567     0.09367265
 C      8   7   1     2.635625236210   121.61865587   359.95316976
 C      2   1   3     2.667818413948   120.26497337   180.00233508
 C     10   2   1     2.715046725878   121.24605542   179.98064967
 C     11  10   2     2.785599781361   118.88436979   359.85514912
 C      3   2   1     2.667671369065   119.86594295   180.10388592
 C     13   3   2     2.709435429731   119.59526947   179.95457222
 C     14  13   3     2.635676836303   119.46275999     0.09241507
 C     15  14  13     2.635625249143   121.61862716   359.95501235
 C      6   1   2     2.606903943622   118.71967285   179.83438745
 C     17   6   1     2.671312667198   121.98234186     0.11042480
 C     18  17   6     2.578332831222   120.39405458     0.00000000
 C      9   8   7     2.693322456245   121.09637726   179.94821240
 C     20   9   8     2.578366708718   120.29821513   180.02641785
 C     11  10   2     2.606907856251   118.73676841   179.84015802
 C     12  11  10     2.606903705362   122.39281066   180.23732503
 C     23  12  11     2.671313035790   121.98238584   180.09123898
 C     24  23  12     2.578332827542   120.39402391     0.00000000
 C     16  15  14     2.693322400054   121.09642199   179.94438027
 C     26  16  15     2.578367007399   120.29825179   180.03149828
 C      5   4   3     2.606908213785   118.73670633   179.83392704
 H      8   7   1     2.064194941031   119.17939978   179.95373017
 H     15  14  13     2.064194902515   119.17940297   179.95232263
 H     17   6   1     2.058051020502   120.12154018   180.11936687
 H     18  17   6     2.062986619747   119.21489870   179.97797812
 H     19  18  17     2.063398538095   121.01676626   179.97348387
 H     20   9   8     2.063331663023   118.66923905     0.00000000
 H     21  20   9     2.063061353318   120.41432595   179.95060299
 H     22  11  10     2.057886519826   120.09217629   180.11192939
 H     23  12  11     2.058051024670   120.12162012     0.09786341
 H     24  23  12     2.062986422530   119.21489173   179.97852951
 H     25  24  23     2.063398746444   121.01678206   179.97327038
 H     26  16  15     2.063331617442   118.66924582     0.00000000
 H     27  26  16     2.063061596509   120.41423923   179.94918647
 H     28   5   4     2.057886676414   120.09209545   180.11711891

---------------------
BASIS SET INFORMATION
---------------------
There are 2 groups of distinct atoms

 Group   1 Type C   : 15s8p3d2f1g contracted to 7s4p3d2f1g pattern {8211111/5111/111/11/1}
 Group   2 Type H   : 7s3p2d1f contracted to 4s3p2d1f pattern {4111/111/11/1}

Atom   0C    basis set group =>   1
Atom   1C    basis set group =>   1
Atom   2C    basis set group =>   1
Atom   3C    basis set group =>   1
Atom   4C    basis set group =>   1
Atom   5C    basis set group =>   1
Atom   6C    basis set group =>   1
Atom   7C    basis set group =>   1
Atom   8C    basis set group =>   1
Atom   9C    basis set group =>   1
Atom  10C    basis set group =>   1
Atom  11C    basis set group =>   1
Atom  12C    basis set group =>   1
Atom  13C    basis set group =>   1
Atom  14C    basis set group =>   1
Atom  15C    basis set group =>   1
Atom  16C    basis set group =>   1
Atom  17C    basis set group =>   1
Atom  18C    basis set group =>   1
Atom  19C    basis set group =>   1
Atom  20C    basis set group =>   1
Atom  21C    basis set group =>   1
Atom  22C    basis set group =>   1
Atom  23C    basis set group =>   1
Atom  24C    basis set group =>   1
Atom  25C    basis set group =>   1
Atom  26C    basis set group =>   1
Atom  27C    basis set group =>   1
Atom  28H    basis set group =>   2
Atom  29H    basis set group =>   2
Atom  30H    basis set group =>   2
Atom  31H    basis set group =>   2
Atom  32H    basis set group =>   2
Atom  33H    basis set group =>   2
Atom  34H    basis set group =>   2
Atom  35H    basis set group =>   2
Atom  36H    basis set group =>   2
Atom  37H    basis set group =>   2
Atom  38H    basis set group =>   2
Atom  39H    basis set group =>   2
Atom  40H    basis set group =>   2
Atom  41H    basis set group =>   2
---------------------------------
AUXILIARY/C BASIS SET INFORMATION
---------------------------------
There are 2 groups of distinct atoms

 Group   1 Type C   : 9s8p7d5f3g1h contracted to 9s8p7d5f3g1h pattern {111111111/11111111/1111111/11111/111/1}
 Group   2 Type H   : 6s4p3d2f1g contracted to 6s4p3d2f1g pattern {111111/1111/111/11/1}

Atom   0C    basis set group =>   1
Atom   1C    basis set group =>   1
Atom   2C    basis set group =>   1
Atom   3C    basis set group =>   1
Atom   4C    basis set group =>   1
Atom   5C    basis set group =>   1
Atom   6C    basis set group =>   1
Atom   7C    basis set group =>   1
Atom   8C    basis set group =>   1
Atom   9C    basis set group =>   1
Atom  10C    basis set group =>   1
Atom  11C    basis set group =>   1
Atom  12C    basis set group =>   1
Atom  13C    basis set group =>   1
Atom  14C    basis set group =>   1
Atom  15C    basis set group =>   1
Atom  16C    basis set group =>   1
Atom  17C    basis set group =>   1
Atom  18C    basis set group =>   1
Atom  19C    basis set group =>   1
Atom  20C    basis set group =>   1
Atom  21C    basis set group =>   1
Atom  22C    basis set group =>   1
Atom  23C    basis set group =>   1
Atom  24C    basis set group =>   1
Atom  25C    basis set group =>   1
Atom  26C    basis set group =>   1
Atom  27C    basis set group =>   1
Atom  28H    basis set group =>   2
Atom  29H    basis set group =>   2
Atom  30H    basis set group =>   2
Atom  31H    basis set group =>   2
Atom  32H    basis set group =>   2
Atom  33H    basis set group =>   2
Atom  34H    basis set group =>   2
Atom  35H    basis set group =>   2
Atom  36H    basis set group =>   2
Atom  37H    basis set group =>   2
Atom  38H    basis set group =>   2
Atom  39H    basis set group =>   2
Atom  40H    basis set group =>   2
Atom  41H    basis set group =>   2
----------------------------------
AUXILIARY/JK BASIS SET INFORMATION
----------------------------------
There are 2 groups of distinct atoms

 Group   1 Type C   : 9s8p7d5f3g1h contracted to 9s8p7d5f3g1h pattern {111111111/11111111/1111111/11111/111/1}
 Group   2 Type H   : 6s4p3d2f1g contracted to 6s4p3d2f1g pattern {111111/1111/111/11/1}

Atom   0C    basis set group =>   1
Atom   1C    basis set group =>   1
Atom   2C    basis set group =>   1
Atom   3C    basis set group =>   1
Atom   4C    basis set group =>   1
Atom   5C    basis set group =>   1
Atom   6C    basis set group =>   1
Atom   7C    basis set group =>   1
Atom   8C    basis set group =>   1
Atom   9C    basis set group =>   1
Atom  10C    basis set group =>   1
Atom  11C    basis set group =>   1
Atom  12C    basis set group =>   1
Atom  13C    basis set group =>   1
Atom  14C    basis set group =>   1
Atom  15C    basis set group =>   1
Atom  16C    basis set group =>   1
Atom  17C    basis set group =>   1
Atom  18C    basis set group =>   1
Atom  19C    basis set group =>   1
Atom  20C    basis set group =>   1
Atom  21C    basis set group =>   1
Atom  22C    basis set group =>   1
Atom  23C    basis set group =>   1
Atom  24C    basis set group =>   1
Atom  25C    basis set group =>   1
Atom  26C    basis set group =>   1
Atom  27C    basis set group =>   1
Atom  28H    basis set group =>   2
Atom  29H    basis set group =>   2
Atom  30H    basis set group =>   2
Atom  31H    basis set group =>   2
Atom  32H    basis set group =>   2
Atom  33H    basis set group =>   2
Atom  34H    basis set group =>   2
Atom  35H    basis set group =>   2
Atom  36H    basis set group =>   2
Atom  37H    basis set group =>   2
Atom  38H    basis set group =>   2
Atom  39H    basis set group =>   2
Atom  40H    basis set group =>   2
Atom  41H    basis set group =>   2


           ************************************************************
           *        Program running with 104 parallel MPI-processes   *
           *              working on a common directory               *
           ************************************************************
------------------------------------------------------------------------------
                             ORCA STARTUP CALCULATIONS
                           -- RI-GTO INTEGRALS CHOSEN --
------------------------------------------------------------------------------
------------------------------------------------------------------------------
                   ___                                                        
                  /   \      - P O W E R E D   B Y -                         
                 /     \                                                     
                 |  |  |   _    _      __       _____    __    __             
                 |  |  |  | |  | |    /  \     |  _  \  |  |  /  |          
                  \  \/   | |  | |   /    \    | | | |  |  | /  /          
                 / \  \   | |__| |  /  /\  \   | |_| |  |  |/  /          
                |  |  |   |  __  | /  /__\  \  |    /   |      \           
                |  |  |   | |  | | |   __   |  |    \   |  |\   \          
                \     /   | |  | | |  |  |  |  | |\  \  |  | \   \       
                 \___/    |_|  |_| |__|  |__|  |_| \__\ |__|  \__/        
                                                                              
                      - O R C A' S   B I G   F R I E N D -                    
                                      &                                       
                       - I N T E G R A L  F E E D E R -                       
                                                                              
 v1 FN, 2020, v2 2021, v3 2022-2024                                           
------------------------------------------------------------------------------


----------------------
SHARK INTEGRAL PACKAGE
----------------------

Number of atoms                             ...     42
Number of basis functions                   ...   2016
Number of shells                            ...    616
Maximum angular momentum                    ...      4
Integral batch strategy                     ... SHARK/LIBINT Hybrid
RI-J (if used) integral strategy            ... SPLIT-RIJ (Revised 2003 algorithm where possible)
Printlevel                                  ...      1
Contraction scheme used                     ... SEGMENTED contraction
Prescreening option                         ... SCHWARTZ
   Thresh                                   ... 1.000e-10
   Tcut                                     ... 1.000e-11
   Tpresel                                  ... 1.000e-11 
Coulomb Range Separation                    ... NOT USED
Exchange Range Separation                   ... NOT USED
Multipole approximations                    ... NOT USED
Finite Nucleus Model                        ... NOT USED
CABS basis                                  ... NOT available
Auxiliary Coulomb fitting basis             ... NOT available
Auxiliary J/K fitting basis                 ... AVAILABLE
   # of basis functions in Aux-JK           ...   4732
   # of shells in Aux-JK                    ...   1148
   Maximum angular momentum in Aux-JK       ...      5
Auxiliary Correlation fitting basis         ... AVAILABLE
   # of basis functions in Aux-C            ...   4732
   # of shells in Aux-C                     ...   1148
   Maximum angular momentum in Aux-C        ...      5
Auxiliary 'external' fitting basis          ... NOT available

Checking pre-screening integrals            ... done (  0.0 sec) Dimension = 616
Check shell pair data                       ... done (  0.0 sec)
Shell pair information
Shell pair cut-off parameter TPreSel        ...   1.0e-11
Total number of shell pairs                 ...    190036
Shell pairs after pre-screening             ...    111418
Total number of primitive shell pairs       ...    495691
Primitive shell pairs kept                  ...    197456
          la=0 lb=0:  16784 shell pairs
          la=1 lb=0:  25122 shell pairs
          la=1 lb=1:   8731 shell pairs
          la=2 lb=0:  15098 shell pairs
          la=2 lb=1:  11366 shell pairs
          la=2 lb=2:   3624 shell pairs
          la=3 lb=0:   9096 shell pairs
          la=3 lb=1:   6792 shell pairs
          la=3 lb=2:   4154 shell pairs
          la=3 lb=3:   1266 shell pairs
          la=4 lb=0:   3660 shell pairs
          la=4 lb=1:   2798 shell pairs
          la=4 lb=2:   1698 shell pairs
          la=4 lb=3:   1004 shell pairs
          la=4 lb=4:    225 shell pairs

Calculating one electron integrals          ... done (  1.0 sec)
Calculating RI/JK V-Matrix + Cholesky decomp... done (  0.9 sec)
Calculating RI/C V-Matrix + Cholesky decomp.... done (  0.8 sec)
Calculating Nuclear repulsion               ... done (  0.0 sec) ENN=   2323.124144739059 Eh

Diagonalization of the overlap matrix:
Smallest eigenvalue                        ... 5.154e-08
Time for diagonalization                   ...    0.674 sec
Threshold for overlap eigenvalues          ... 1.000e-07
Number of eigenvalues below threshold      ... 2
Smallest eigenvalue above threshold        ... 1.979e-06

IMPORTANT:
Smallest eigenvalue of S below the DiffSThresh (1.000e-06) while
Thresh>1e-12 and/or TCut>1e-13! In order to avoid SCF convergence issues,
Thresh will be set to at least 1e-12 and TCut to at least 1e-13.
This can be turned off by adding %SCF DiffSThresh -1 END to the input.

Time for construction of square roots      ...    0.413 sec
Total time needed                          ...    1.121 sec

-------------------
DFT GRID GENERATION
-------------------

General Integration Accuracy     IntAcc      ... 4.959
Radial Grid Type                 RadialGrid  ... OptM3 with GC (2021)
Angular Grid (max. ang.)         AngularGrid ... 6 (Lebedev-590)
Angular grid pruning method      GridPruning ... 4 (adaptive)
Weight generation scheme         WeightScheme... mBecke (2022)
Basis function cutoff            BFCut       ... 1.0000e-10
Integration weight cutoff        WCut        ... 1.0000e-14
Partially contracted basis set               ... off
Rotationally invariant grid construction     ... off
Angular grids for H and He will be reduced by one unit
Diffuse basis detected: some atoms will have their outermost
                        angular grid increased by 1.

Total number of grid points                  ...   524184
Total number of batches                      ...     8213
Average number of points per batch           ...       63
Average number of grid points per atom       ...    12481
Initializing property integral containers    ... done (  0.0 sec)

SHARK setup successfully completed in  10.8 seconds

Maximum memory used throughout the entire STARTUP-calculation: 229.1 MB


           ************************************************************
           *        Program running with 104 parallel MPI-processes   *
           *              working on a common directory               *
           ************************************************************
-------------------------------------------------------------------------------
                                 ORCA GUESS
                   Start orbitals & Density for SCF / CASSCF
-------------------------------------------------------------------------------

------------
SCF SETTINGS
------------
Hamiltonian:
 Density Functional     Method          .... DFT(GTOs)
 Exchange Functional    Exchange        .... PBE
   PBE kappa parameter   XKappa         ....  0.804000
   PBE mue parameter    XMuePBE         ....  0.219520
 Correlation Functional Correlation     .... P86
 LDA part of GGA corr.  LDAOpt          .... VWN-5
 Gradients option       PostSCFGGA      .... off
 Hybrid DFT is turned on
   Fraction HF Exchange ScalHFX         ....  0.690000
   Scaling of DF-GGA-X  ScalDFX         ....  0.310000
   Scaling of DF-GGA-C  ScalDFC         ....  0.403800
   Scaling of DF-LDA-C  ScalLDAC        ....  0.403800
   Perturbative correction              ....  1.000000
 RI-approximation to the Coulomb term is turned on
   Number of AuxJK basis functions      .... 4732
   RI-JK (J+K treated both via RI)      .... on


General Settings:
 Integral files         IntName         .... compas3D_hc_c28h14_0pent_1_qz_riri
 Hartree-Fock type      HFTyp           .... RHF
 Total Charge           Charge          ....    0
 Multiplicity           Mult            ....    1
 Number of Electrons    NEL             ....  182
 Basis Dimension        Dim             .... 2016
 Nuclear Repulsion      ENuc            ....   2323.1241447391 Eh

Convergence Acceleration:
 AO-DIIS                CNVDIIS         .... on
   Start iteration      DIISMaxIt       ....    12
   Startup error        DIISStart       ....  0.200000
   # of expansion vecs  DIISMaxEq       ....     5
   Bias factor          DIISBfac        ....   1.050
   Max. coefficient     DIISMaxC        ....  10.000
 MO-DIIS                CNVKDIIS        .... off
 Trust-Rad. Augm. Hess. CNVTRAH         .... auto
   Auto Start mean grad. ratio tolernc. ....  1.125000
   Auto Start start iteration           ....    50
   Auto Start num. interpolation iter.  ....    10
   Max. Number of Micro iterations      ....    24
   Max. Number of Macro iterations      .... Maxiter - #DIIS iter
   Number of Davidson start vectors     ....     2
   Converg. threshold    (grad. norm)   ....   5.000e-05
   Grad. Scal. Fac. for Micro threshold ....   0.100
   Minimum threshold for Micro iter.    ....   1.000e-02
   NR start threshold (gradient norm)   ....   1.000e-04
   Initial trust radius                 ....   0.400
   Minimum AH scaling param. (alpha)    ....   1.000
   Maximum AH scaling param. (alpha)    .... 1000.000
   Quad. conv. algorithm                .... NR
   White noise on init. David. guess    .... on
   Maximum white noise                  ....   0.010
   Pseudo random numbers                .... off
   Inactive MOs                         .... canonical
   Orbital update algorithm             .... Taylor
   Preconditioner                       .... Diag
   Full preconditioner red. dimension   ....   250
 SOSCF                  CNVSOSCF        .... on
   Start iteration      SOSCFMaxIt      ....   150
   Startup grad/error   SOSCFStart      ....  0.003300
   Hessian update       SOSCFHessUp     .... L-BFGS
 Level Shifting         CNVShift        .... on
   Level shift para.    LevelShift      ....    0.2500
   Turn off err/grad.   ShiftErr        ....    0.0010
 Zerner damping         CNVZerner       .... off
 Static damping         CNVDamp         .... on
   Fraction old density DampFac         ....    0.7000
   Max. Damping (<1)    DampMax         ....    0.9800
   Min. Damping (>=0)   DampMin         ....    0.0000
   Turn off err/grad.   DampErr         ....    0.1000

SCF Procedure:
 Maximum # iterations   MaxIter         ....   125
 SCF integral mode      SCFMode         .... Direct
   Integral package                     .... SHARK and LIBINT hybrid scheme
 Reset frequency        DirectResetFreq ....    20
 Integral Threshold     Thresh          ....  1.000e-12 Eh
 Primitive CutOff       TCut            ....  1.000e-13 Eh

Convergence Tolerance:
 Convergence Check Mode ConvCheckMode   .... Total+1el-Energy
 Convergence forced     ConvForced      .... 0
 Energy Change          TolE            ....  1.000e-06 Eh
 1-El. energy change                    ....  1.000e-03 Eh
 Orbital Gradient       TolG            ....  5.000e-05
 Orbital Rotation angle TolX            ....  5.000e-05
 DIIS Error             TolErr          ....  1.000e-06

------------------------------
INITIAL GUESS: MODEL POTENTIAL
------------------------------
Loading Hartree-Fock densities                     ... done
Calculating cut-offs                               ... done
Initializing the effective Hamiltonian             ... done
Setting up the integral package (SHARK)            ... done
Starting the Coulomb interaction                   ... done (   0.4 sec)
Making the grid                                    ... done (   0.4 sec)
Mapping shells                                     ... done
Starting the XC term evaluation                    ... done (   0.2 sec)
  promolecular density results
     # of electrons  =    182.027126948
     EX              =   -147.476674663
     EC              =      0.229475249
     EX+EC           =   -147.247199414
Transforming the Hamiltonian                       ... done (   0.4 sec)
Diagonalizing the Hamiltonian                      ... done (   0.5 sec)
Back transforming the eigenvectors                 ... done (   0.3 sec)
Now organizing SCF variables                       ... done
                      ------------------
                      INITIAL GUESS DONE (   2.7 sec)
                      ------------------
             **** ENERGY FILE WAS UPDATED (compas3D_hc_c28h14_0pent_1_qz_riri.en.tmp) ****
Finished Guess after  19.5 sec
Maximum memory used throughout the entire GUESS-calculation: 243.6 MB


           ************************************************************
           *        Program running with 104 parallel MPI-processes   *
           *              working on a common directory               *
           ************************************************************

-------------------------------------------------------------------------------------------
                                      ORCA LEAN-SCF
                              memory conserving SCF solver
-------------------------------------------------------------------------------------------

----------------------------------------D-I-I-S--------------------------------------------
Iteration    Energy (Eh)           Delta-E    RMSDP     MaxDP     DIISErr   Damp  Time(sec)
-------------------------------------------------------------------------------------------
    1    -1070.8960916777850798     0.00e+00  2.48e-04  2.90e-02  1.44e-01  0.700  18.8
    2    -1070.7137114476363422     1.82e-01  2.16e-04  1.85e-02  1.29e-01  0.700  20.1
                               ***Turning on AO-DIIS***
    3    -1070.8301867161676455    -1.16e-01  1.65e-04  1.53e-02  7.79e-02  0.700  20.7
    4    -1071.0563938131999748    -2.26e-01  3.49e-04  4.60e-02  4.09e-02  0.000  19.8
    5    -1071.4245387362780093    -3.68e-01  8.49e-05  9.35e-03  3.57e-02  0.000  19.3
    6    -1071.4405981144509497    -1.61e-02  5.00e-05  5.98e-03  1.56e-02  0.000  19.1
    7    -1071.4444475117957154    -3.85e-03  1.91e-05  2.38e-03  5.14e-03  0.000  18.9
                              *** Initializing SOSCF ***
---------------------------------------S-O-S-C-F--------------------------------------
Iteration    Energy (Eh)           Delta-E    RMSDP     MaxDP     MaxGrad    Time(sec)
--------------------------------------------------------------------------------------
    8    -1071.4449080199988202    -4.61e-04  6.59e-06  5.44e-04  1.13e-03    20.4
    9    -1071.4449547957210598    -4.68e-05  5.00e-06  3.96e-04  5.51e-04    19.4
   10    -1071.4449666670529950    -1.19e-05  3.73e-06  2.41e-04  3.24e-04    18.9
   11    -1071.4449692200992104    -2.55e-06  1.30e-06  9.45e-05  2.00e-04    18.4
   12    -1071.4449701126031869    -8.93e-07  7.08e-07  4.74e-05  7.03e-05    18.4
                 **** Energy Check signals convergence ****

               *****************************************************
               *                     SUCCESS                       *
               *           SCF CONVERGED AFTER  12 CYCLES          *
               *****************************************************

             **** ENERGY FILE WAS UPDATED (compas3D_hc_c28h14_0pent_1_qz_riri.en.tmp) ****

----------------
TOTAL SCF ENERGY
----------------

Total Energy       :      -1071.44497011260319 Eh          -29155.49987 eV

Components:
Nuclear Repulsion  :       2323.12414473905937 Eh           63215.42179 eV
Electronic Energy  :      -3394.56911485166256 Eh          -92370.92166 eV
One Electron Energy:      -6068.70581919473352 Eh         -165137.88079 eV
Two Electron Energy:       2674.13670434307096 Eh           72766.95913 eV

Virial components:
Potential Energy   :      -2139.73506174640079 Eh          -58225.15114 eV
Kinetic Energy     :       1068.29009163379760 Eh           29069.65127 eV
Virial Ratio       :          2.00295320391298

DFT components:
N(Alpha)           :       91.000042005753 electrons
N(Beta)            :       91.000042005753 electrons
N(Total)           :      182.000084011507 electrons
E(X)               :      -46.446245456943 Eh       
E(C)               :       -2.721828122550 Eh       
E(XC)              :      -49.168073579493 Eh       

---------------
SCF CONVERGENCE
---------------

  Last Energy change         ...    8.9250e-07  Tolerance :   1.0000e-06
  Last MAX-Density change    ...    4.7378e-05  Tolerance :   1.0000e-05
  Last RMS-Density change    ...    7.0848e-07  Tolerance :   1.0000e-06
  Last DIIS Error            ...    1.1282e-03  Tolerance :   1.0000e-06
  Last Orbital Gradient      ...    7.0318e-05  Tolerance :   5.0000e-05
  Last Orbital Rotation      ...    2.7168e-04  Tolerance :   5.0000e-05


----------------
ORBITAL ENERGIES
----------------

  NO   OCC          E(Eh)            E(eV) 
   0   2.0000     -10.840439      -294.9834 
   1   2.0000     -10.840431      -294.9831 
   2   2.0000     -10.839906      -294.9688 
   3   2.0000     -10.839846      -294.9672 
   4   2.0000     -10.839828      -294.9667 
   5   2.0000     -10.839270      -294.9515 
   6   2.0000     -10.837529      -294.9042 
   7   2.0000     -10.837522      -294.9040 
   8   2.0000     -10.837365      -294.8997 
   9   2.0000     -10.837299      -294.8979 
  10   2.0000     -10.835700      -294.8544 
  11   2.0000     -10.835698      -294.8543 
  12   2.0000     -10.835664      -294.8534 
  13   2.0000     -10.835663      -294.8534 
  14   2.0000     -10.827176      -294.6224 
  15   2.0000     -10.827176      -294.6224 
  16   2.0000     -10.827159      -294.6220 
  17   2.0000     -10.827159      -294.6220 
  18   2.0000     -10.825968      -294.5896 
  19   2.0000     -10.825966      -294.5895 
  20   2.0000     -10.825962      -294.5894 
  21   2.0000     -10.825960      -294.5893 
  22   2.0000     -10.825724      -294.5829 
  23   2.0000     -10.825724      -294.5829 
  24   2.0000     -10.825529      -294.5776 
  25   2.0000     -10.825527      -294.5776 
  26   2.0000     -10.825525      -294.5775 
  27   2.0000     -10.825523      -294.5775 
  28   2.0000      -1.102053       -29.9884 
  29   2.0000      -1.068603       -29.0782 
  30   2.0000      -1.062743       -28.9187 
  31   2.0000      -1.032579       -28.0979 
  32   2.0000      -1.005463       -27.3600 
  33   2.0000      -0.999919       -27.2092 
  34   2.0000      -0.975500       -26.5447 
  35   2.0000      -0.962721       -26.1970 
  36   2.0000      -0.929833       -25.3020 
  37   2.0000      -0.920798       -25.0562 
  38   2.0000      -0.906777       -24.6747 
  39   2.0000      -0.905796       -24.6480 
  40   2.0000      -0.893599       -24.3161 
  41   2.0000      -0.839611       -22.8470 
  42   2.0000      -0.814795       -22.1717 
  43   2.0000      -0.788793       -21.4641 
  44   2.0000      -0.777684       -21.1619 
  45   2.0000      -0.774824       -21.0840 
  46   2.0000      -0.762625       -20.7521 
  47   2.0000      -0.741132       -20.1672 
  48   2.0000      -0.698039       -18.9946 
  49   2.0000      -0.696351       -18.9487 
  50   2.0000      -0.678970       -18.4757 
  51   2.0000      -0.661185       -17.9918 
  52   2.0000      -0.647685       -17.6244 
  53   2.0000      -0.646219       -17.5845 
  54   2.0000      -0.614771       -16.7288 
  55   2.0000      -0.602095       -16.3838 
  56   2.0000      -0.592120       -16.1124 
  57   2.0000      -0.582661       -15.8550 
  58   2.0000      -0.580901       -15.8071 
  59   2.0000      -0.566912       -15.4265 
  60   2.0000      -0.563712       -15.3394 
  61   2.0000      -0.551738       -15.0136 
  62   2.0000      -0.535526       -14.5724 
  63   2.0000      -0.533314       -14.5122 
  64   2.0000      -0.529166       -14.3993 
  65   2.0000      -0.528398       -14.3784 
  66   2.0000      -0.521573       -14.1927 
  67   2.0000      -0.502852       -13.6833 
  68   2.0000      -0.502023       -13.6607 
  69   2.0000      -0.493763       -13.4360 
  70   2.0000      -0.488469       -13.2919 
  71   2.0000      -0.487338       -13.2611 
  72   2.0000      -0.479942       -13.0599 
  73   2.0000      -0.469232       -12.7685 
  74   2.0000      -0.463302       -12.6071 
  75   2.0000      -0.453499       -12.3403 
  76   2.0000      -0.446736       -12.1563 
  77   2.0000      -0.441698       -12.0192 
  78   2.0000      -0.439581       -11.9616 
  79   2.0000      -0.410717       -11.1762 
  80   2.0000      -0.410418       -11.1680 
  81   2.0000      -0.405072       -11.0226 
  82   2.0000      -0.401514       -10.9257 
  83   2.0000      -0.371280       -10.1031 
  84   2.0000      -0.359043        -9.7701 
  85   2.0000      -0.331282        -9.0147 
  86   2.0000      -0.298936        -8.1345 
  87   2.0000      -0.293717        -7.9924 
  88   2.0000      -0.289851        -7.8872 
  89   2.0000      -0.279094        -7.5945 
  90   2.0000      -0.197720        -5.3802 
  91   0.0000      -0.044269        -1.2046 
  92   0.0000       0.032612         0.8874 
  93   0.0000       0.035751         0.9728 
  94   0.0000       0.041778         1.1368 
  95   0.0000       0.062402         1.6980 
  96   0.0000       0.063028         1.7151 
  97   0.0000       0.073225         1.9926 
  98   0.0000       0.078405         2.1335 
  99   0.0000       0.079271         2.1571 
 100   0.0000       0.089401         2.4327 
 101   0.0000       0.091701         2.4953 
*Only the first 10 virtual orbitals were printed.
-------
TIMINGS
-------

Total SCF time: 0 days 0 hours 4 min 10 sec 

Total time                  ....     250.346 sec
Sum of individual times     ....     250.092 sec  ( 99.9%)

SCF preparation             ....      16.022 sec  (  6.4%)
Fock matrix formation       ....     203.721 sec  ( 81.4%)
  Startup                   ....       2.110 sec  (  1.0% of F)
  RI-JK                     ....     181.560 sec  ( 89.1% of F)
  XC integration            ....      15.650 sec  (  7.7% of F)
    XC Preparation          ....       0.000 sec  (  0.0% of XC)
    Basis function eval.    ....       1.131 sec  (  7.2% of XC)
    Density eval.           ....       2.941 sec  ( 18.8% of XC)
    XC-Functional eval.     ....       0.033 sec  (  0.2% of XC)
    XC-Potential eval.      ....       4.421 sec  ( 28.2% of XC)
Diagonalization             ....       0.000 sec  (  0.0%)
Density matrix formation    ....       4.192 sec  (  1.7%)
Total Energy calculation    ....       1.402 sec  (  0.6%)
Population analysis         ....       0.000 sec  (  0.0%)
Orbital Transformation      ....       3.007 sec  (  1.2%)
Orbital Orthonormalization  ....       0.000 sec  (  0.0%)
DIIS solution               ....      16.718 sec  (  6.7%)
SOSCF solution              ....       4.942 sec  (  2.0%)
Finished LeanSCF after 250.7 sec

Maximum memory used throughout the entire LEANSCF-calculation: 751.5 MB


           ************************************************************
           *        Program running with 104 parallel MPI-processes   *
           *              working on a common directory               *
           ************************************************************

------------------------------------------------------------------------------
                                ORCA  MP2 
------------------------------------------------------------------------------


-------------
RI-MP2 ENERGY
-------------
Dimension of the orbital basis            ... 2016
Dimension of the AuxC basis               ... 4732
Memory devoted to MP2                     ... 4096 MB   
Data format for matrix containers         ... DOUBLE
Compression type for matrix containers    ... UNCOMPRESSED
Scaling for aa/bb pairs                   ...   5.710e-02
Scaling for ab pairs                      ...   5.979e-01
Overall scaling of the MP2 energy         ...   1.000e+00

-----------------------
SHARK RI TRANSFORMATION
-----------------------

Number of basis functions                ...   2016
Number of aux functions                  ...   4732
Number of operators                      ...      1
Generation of IJK                        ... NO
Generation of IAK                        ... YES
Generation of ABK                        ... NO
Orbital Range Operator  0:    0-  90 to   91-2015

Aux basis identifier                     ...   AUXC
Contraction scheme used                  ... SEGMENTED
Do orthogonalization                     ... YES
All operator combinations                ... NO
Transpose (ia|K)                         ... NO
Integral generator used                  ... LIBINT
Starting integral generation + trafo... 
Half trafo (segmented) done. Total time =  6.8 sec. integrals=  1.7 sec trafo=  4.2 sec
Integral generation and half transformation done (  6.8 sec)

Reading or making V^(-1/2)          ... done (  0.4 sec)
Sorting IAK integrals               ... done ( 11.5 sec)

SHARK RI integral transformation done. Total time = 18.9 sec.

Opening buffers                              ... done

Starting loop over batches of integrals:

Operator 0  - window                       ... (  0- 90)x( 91-2015)
Operator 0  - Memory available             ...  4096 MB
Operator 0  - Memory needed per MO         ...  69.5 MB
Operator 0  - Number of orbitals per batch ... 1
Operator 0  - Number of batches            ... 1

OPERATOR  0   PASS   0:  MOs     0 ...    0 +    1 ...    1 +    2 ...    2 +    3 ...    3
                            +    4 ...    4 +    5 ...    5 +    6 ...    6 +    7 ...    7
                            +    8 ...    8 +    9 ...    9 +   10 ...   10 +   11 ...   11
                            +   12 ...   12 +   13 ...   13 +   14 ...   14 +   15 ...   15
                            +   16 ...   16 +   17 ...   17 +   18 ...   18 +   19 ...   19
                            +   20 ...   20 +   21 ...   21 +   22 ...   22 +   23 ...   23
                            +   24 ...   24 +   25 ...   25 +   26 ...   26 +   27 ...   27
                            +   28 ...   28 +   29 ...   29 +   30 ...   30 +   31 ...   31
                            +   32 ...   32 +   33 ...   33 +   34 ...   34 +   35 ...   35
                            +   36 ...   36 +   37 ...   37 +   38 ...   38 +   39 ...   39
                            +   40 ...   40 +   41 ...   41 +   42 ...   42 +   43 ...   43
                            +   44 ...   44 +   45 ...   45 +   46 ...   46 +   47 ...   47
                            +   48 ...   48 +   49 ...   49 +   50 ...   50 +   51 ...   51
                            +   52 ...   52 +   53 ...   53 +   54 ...   54 +   55 ...   55
                            +   56 ...   56 +   57 ...   57 +   58 ...   58 +   59 ...   59
                            +   60 ...   60 +   61 ...   61 +   62 ...   62 +   63 ...   63
                            +   64 ...   64 +   65 ...   65 +   66 ...   66 +   67 ...   67
                            +   68 ...   68 +   69 ...   69 +   70 ...   70 +   71 ...   71
                            +   72 ...   72 +   73 ...   73 +   74 ...   74 +   75 ...   75
                            +   76 ...   76 +   77 ...   77 +   78 ...   78 +   79 ...   79
                            +   80 ...   80 +   81 ...   81 +   82 ...   82 +   83 ...   83
                            +   84 ...   84 +   85 ...   85 +   86 ...   86 +   87 ...   87
                            +   88 ...   88 +   89 ...   89 +   90 ...   90
  Reading integrals       ... ok
Time spent in pair loops =    65.630 sec

-----------------------------------------------
 RI-MP2 CORRELATION ENERGY:     -2.748892407 Eh
-----------------------------------------------


-------
TIMINGS
-------

Total time                :   88.004 sec
Integral trafo            :   19.197 sec ( 21.8%)
I/O of integrals          :    0.068 sec (  0.1%)
K(i,j) operators          :    0.674 sec (  0.8%)
T(i,j) pair energies      :    0.101 sec (  0.1%)
V**(-1/2)                 :    3.175 sec (  3.6%)


---------------------------------------
MP2 TOTAL ENERGY:    -1074.193862519 Eh
---------------------------------------

Maximum memory used throughout the entire MP2-calculation: 505.5 MB


-------------------------------------------------------------------------------
                          DFT DISPERSION CORRECTION                            
                                                                               
                                DFTD4 V3.4.0                                   
-------------------------------------------------------------------------------
The REV-DSD-PBEP86-2021 functional is recognized
A user input s6-coefficient scaling factor has been recognized
A user input a1-coefficient scaling factor has been recognized
A user input s8-coefficient scaling factor has been recognized
A user input a2-coefficient scaling factor has been recognized
A user input s9-coefficient scaling factor has been recognized
Active option DFTDOPT                   ...         5   

-------------------------   ----------------
Dispersion correction           -0.046069477
-------------------------   ----------------


-------------------------   --------------------
FINAL SINGLE POINT ENERGY     -1074.239931995960
-------------------------   --------------------



           ************************************************************
           *        Program running with 104 parallel MPI-processes   *
           *              working on a common directory               *
           ************************************************************

------------------------------------------------------------------------------
                              ORCA PROPERTY CALCULATIONS
------------------------------------------------------------------------------

GBWName                                 ... compas3D_hc_c28h14_0pent_1_qz_riri.gbw
Number of atoms                         ...     42
Number of basis functions               ...   2016
Max core memory                         ...   1024 MB

Electric properties:
Dipole moment                           ... YES
Quadrupole moment                       ...  NO
Static polarizability (Dipole/Dipole)   ...  NO
Static polarizability (Dipole/Quad.)    ...  NO
Static polarizability (Quad./Quad.)     ...  NO
Static polarizability (Velocity)        ...  NO

Atomic electric properties:
Dipole moment                           ...  NO
Quadrupole moment                       ...  NO
Static polarizability                   ...  NO

Choice of electric origin               ... Center of mass
Position of electric origin             ...    -0.000225    -0.000045     0.000014

General magnetic properties:
Magnetizability                         ...  NO

EPR properties:
g-Tensor (aka g-matrix)                 ...  NO
Zero-Field splitting spin-orbit         ...  NO
Zero-field splitting spin-spin          ...  NO
Hyperfine couplings                     ...  NO (   0 nuclei)
Quadrupole couplings                    ...  NO (   0 nuclei)
Contact density                         ...  NO (   0 nuclei)

NMR properties:
Chemical shifts                         ...  NO (   0 nuclei)
Spin-rotation constants                 ...  NO (   0 nuclei)
Spin-spin couplings                     ...  NO (   0 nuclei,    0 pairs)

Choice of magnetic origin               ... GIAO
Position of magnetic origin             ...     0.000000     0.000000     0.000000

Properties with geometric perturbations:
SCF Hessian                             ...  NO
IR spectrum                             ...  NO
VCD spectrum                            ...  NO
X-ray spectroscopy properties:
SCF XES/XAS/RIXS spectra                ...  NO


-------------
DIPOLE MOMENT
-------------

Method             : SCF
Type of density    : Electron Density
Multiplicity       :   1
Irrep              :   0
Energy             : -1071.4449701126031869 Eh
Relativity type    : 
Basis              : AO
                                X                 Y                 Z
Electronic contribution:      0.000003198      -0.000000046       0.000257588
Nuclear contribution   :     -0.000004315      -0.000000085      -0.000327239
                        -----------------------------------------
Total Dipole Moment    :     -0.000001117      -0.000000131      -0.000069651
                        -----------------------------------------
Magnitude (a.u.)       :      0.000069660
Magnitude (Debye)      :      0.000177062



--------------------
Rotational spectrum 
--------------------
 
Rotational constants in cm-1:             0.007899             0.007669             0.003891 
Rotational constants in MHz :           236.794619           229.919604           116.653656 

Dipole components along the rotational axes: 
x,y,z [a.u.] :    -0.000001     0.000000    -0.000070 
x,y,z [Debye]:    -0.000003     0.000000    -0.000177 

 

Dipole moment calculation done in   0.3 sec 

Maximum memory used throughout the entire PROP-calculation: 273.1 MB

--------------------------------
SUGGESTED CITATIONS FOR THIS RUN
--------------------------------

Below you find a list of papers that are relevant to this ORCA run
We neither can nor want to force you to cite these papers, but we appreciate if you do
You receive ORCA, which is the product of decades of hard work by many enthusiastic individuals, for free
The only thing we kindly ask in return is that you cite our papers,
We deeply appreciate it, if you show your appreciation for ORCA by not just citing the generic ORCA reference.

Please note that relegating all ORCA citations to the supporting information does *not* help us.
SI sections are not indexed - citations you put there will not count into any citation statistics
But we need these citations in order to attract the funding resources that allow us to do what we are doing

Therefore, if you are a happy ORCA user, please consider citing a few of the papers listed below in the main body of your paper

In addition to the list printed below, the program has created the file compas3D_hc_c28h14_0pent_1_qz_riri.bibtex that contains the list in bibtex format
You can import this file easily into all common literature databanks and citation aid programs


List of essential papers. We consider these as the minimum necessary citations

  1. Neese,F.
     Software update: the ORCA program system, version 5.0
     WIRES Comput. Molec. Sci., 2022 12(1)e1606
     doi.org/10.1002/wcms.1606

List of papers to cite with high priority. The work reported in these papers was absolutely
necessary for this run to complete.
Our perspective: the developers of density functionals and basis sets usually get cited in chemistry papers
Good! But without the algorithms to do something with them, the functionals or basis sets would not do anything.
Hence, in our opinion, the algorithm design and method developments papers are equally worthy of getting cited

  1. Neese,F.
     An improvement of the resolution of the identity approximation for the formation of the Coulomb matrix
     J. Comp. Chem., 2003 24(14)1740-1747
     doi.org/10.1002/jcc.10318
  2. Kossmann,S.; Neese,F.
     Comparison of two efficient approximate Hartee-Fock approaches
     Chem. Phys. Lett., 2009 481 240-243
     doi.org/10.1016/j.cplett.2009.09.073
  3. Neese,F.
     The SHARK Integral Generation and Digestion System
     J. Comp. Chem., 2022  1-16
     doi.org/10.1002/jcc.26942
  4. Caldeweyher,E.; Bannwarth,C.; Grimme,S.
     Extension of the D3 dispersion coefficient model
     J. Chem. Phys., 2017 147 034112
     doi.org/10.1063/1.4993215
  5. Caldeweyher,E.; Ehlert,S.; Hansen,A.; Neugebauer,H.; Spicher,S.; Bannwarth,C.; Grimme,S.
     A generally applicable atomic-charge dependent London dispersion correction
     J. Chem. Phys., 2019 150 154122
     doi.org/10.1063/1.5090222
  6. Caldeweyher,E.; Mewes,J.; Ehlert,S.; Grimme,S.
     Extension and evaluation of the D4 London-dispersion model for periodic systems
     Phys. Chem. Chem. Phys., 2020 22(16)8499-8512
     doi.org/10.1039/D0CP00502A
  7. Wittmann,L.; Gordiy,I.; Friede,M.; Helmich-Paris,B.; Grimme,S.; Hansen,A.; Bursch,M.
     Extension of the D3 and D4 London Dispersion Corrections to the full Actinides Series
     Phys. Chem. Chem. Phys., 2024 26(32)21379-21394
     doi.org/https://doi.org/10.1039/D4CP01514B 

List of suggested additional citations. These are papers that are important in the 'surrounding' of 
of this run, or papers that preceded the highly important papers. If you like your results we are grateful for a citation.

  1. Neese,F.
     The ORCA program system
     WIRES Comput. Molec. Sci., 2012 2(1)73-78
     doi.org/10.1002/wcms.81
  2. Neese,F.
     Software update: the ORCA program system, version 4.0
     WIRES Comput. Molec. Sci., 2018 8(1)1-6
     doi.org/10.1002/wcms.1327
  3. Neese,F.; Wennmohs,F.; Becker,U.; Riplinger,C.
     The ORCA quantum chemistry program package
     J. Chem. Phys., 2020 152 Art. No. L224108
     doi.org/10.1063/5.0004608

List of optional additional citations

  1. Neese,F.
     Approximate second-order SCF convergence for spin unrestricted wavefunctions
     Chem. Phys. Lett., 2000 325(1-3)93-98
     doi.org/10.1016/s0009-2614(00)00662-x

Timings for individual modules:

Sum of individual times          ...      423.750 sec (=   7.063 min)
Startup calculation              ...       27.361 sec (=   0.456 min)   6.5 %
SCF iterations                   ...      272.776 sec (=   4.546 min)  64.4 %
Property calculations            ...       17.810 sec (=   0.297 min)   4.2 %
MP2 module                       ...      105.803 sec (=   1.763 min)  25.0 %
                             ****ORCA TERMINATED NORMALLY****
TOTAL RUN TIME: 0 days 0 hours 7 minutes 20 seconds 598 msec
