
                                 *****************
                                 * O   R   C   A *
                                 *****************

                                            #,                                       
                                            ###                                      
                                            ####                                     
                                            #####                                    
                                            ######                                   
                                           ########,                                 
                                     ,,################,,,,,                         
                               ,,#################################,,                 
                          ,,##########################################,,             
                       ,#########################################, ''#####,          
                    ,#############################################,,   '####,        
                  ,##################################################,,,,####,       
                ,###########''''           ''''###############################       
              ,#####''   ,,,,##########,,,,          '''####'''          '####       
            ,##' ,,,,###########################,,,                        '##       
           ' ,,###''''                  '''############,,,                           
         ,,##''                                '''############,,,,        ,,,,,,###''
      ,#''                                            '''#######################'''  
     '                                                          ''''####''''         
             ,#######,   #######,   ,#######,      ##                                
            ,#'     '#,  ##    ##  ,#'     '#,    #''#        ,####,   ,####,        
            ##       ##  ##   ,#'  ##            #'  '#       #'       #'  '#        
            ##       ##  #######   ##           ,######,      #####,   #    #        
            '#,     ,#'  ##    ##  '#,     ,#' ,#      #,     #,   #   #,  ,#        
             '#######'   ##     ##  '#######'  #'      '#     '####' # '####'        



                #########################################################
                #                        -***-                          #
                #          Department of theory and spectroscopy        #
                #                                                       #
                #                      Frank Neese                      #
                #                                                       #
                #     Directorship, Architecture, Infrastructure        #
                #                    SHARK, DRIVERS                     #
                #        Core code/Algorithms in most modules           #
                #                                                       #
                #        Max Planck Institute fuer Kohlenforschung      #
                #                Kaiser Wilhelm Platz 1                 #
                #                 D-45470 Muelheim/Ruhr                 #
                #                      Germany                          #
                #                                                       #
                #                  All rights reserved                  #
                #                        -***-                          #
                #########################################################


                         Program Version 6.0.1  -  RELEASE   -


 With contributions from (in alphabetic order):
[Max-Planck-Institut fuer Kohlenforschung]                               
  Daniel Aravena         : Magnetic Suceptibility                        
  Michael Atanasov       : Ab Initio Ligand Field Theory (pilot matlab implementation)
  Alexander A. Auer      : GIAO ZORA, VPT2 properties, NMR spectrum      
  Ute Becker             : All parallelization in ORCA, NUMFREQ, NUMCALC 
  Giovanni Bistoni       : ED, misc. LED, open-shell LED, HFLD           
  Martin Brehm           : Molecular dynamics                            
  Dmytro Bykov           : pre 5.0 version of the SCF Hessian            
  Marcos Casanova-Páez   : Triplet and SCS-CIS(D). UHF-(DLPNO)-IP/EA/STEOM-CCSD. UHF-CVS-IP/STEOM-CCSD   
  Vijay G. Chilkuri      : MRCI spin determinant printing, contributions to CSF-ICE 
  Pauline Colinet        : FMM embedding                                 
  Dipayan Datta          : RHF DLPNO-CCSD density                        
  Achintya Kumar Dutta   : EOM-CC, STEOM-CC                              
  Nicolas Foglia         : Exact transition moments, OPA infrastructure, MCD improvements    
  Dmitry Ganyushin       : Spin-Orbit,Spin-Spin,Magnetic field MRCI      
  Miquel Garcia-Rates    : C-PCM and meta-GGA Hessian, CCSD/C-PCM, Gaussian charge scheme 
  Tiago L. C. Gouveia    : GS-ROHF, GS-ROCIS                             
  Yang Guo               : DLPNO-NEVPT2, F12-NEVPT2, CIM, IAO-localization        
  Andreas Hansen         : Spin unrestricted coupled pair/coupled cluster methods 
  Ingolf Harden          : AUTO-CI MPn and infrastructure                
  Benjamin Helmich-Paris : MC-RPA, TRAH-(SCF,CASSCF), AVAS, COSX integrals, SCF dyn. polar. 
  Lee Huntington         : MR-EOM, pCC                                   
  Robert Izsak           : Overlap fitted RIJCOSX, COSX-SCS-MP3, EOM     
  Riya Kayal             : Wick's Theorem for AUTO-CI, AUTO-CI UHF-CCSDT 
  Emily Kempfer          : AUTO-CI, RHF CISDT and CCSDT                  
  Christian Kollmar      : KDIIS, OOCD, Brueckner-CCSD(T), CCSD density, CASPT2, CASPT2-K, improved NEVPT2 
  Axel Koslowski         : Symmetry handling                             
  Simone Kossmann        : meta-GGA functionals, TD-DFT gradient, OOMP2, (MP2 Hessian; deprecated post 5.0) 
  Lucas Lang             : DCDCAS                                        
  Marvin Lechner         : AUTO-CI (C++ implementation), FIC-MRCC        
  Spencer Leger          : CASSCF response                               
  Dagmar Lenk            : GEPOL surface, SMD, ORCA-2-JSON               
  Dimitrios Liakos       : Extrapolation schemes; Compound Job, initial MDCI parallelization 
  Dimitrios Manganas     : Further ROCIS development; embedding schemes. LFT, Crystal Embedding 
  Dimitrios Pantazis     : SARC Basis sets                               
  Anastasios Papadopoulos: AUTO-CI, single reference methods and gradients 
  Taras Petrenko         : pre 6.0 DFT Hessian and TD-DFT gradient, (ASA, deprecated), ECA, 1-Electron XAS/XES, NRVS 
  Peter Pinski           : DLPNO-MP2, DLPNO-MP2 Gradient                 
  Christoph Reimann      : Effective Core Potentials                     
  Marius Retegan         : Local ZFS, SOC                                
  Christoph Riplinger    : Optimizer, TS searches, QM/MM, DLPNO-CCSD(T), (RO)-DLPNO pert. Triples 
  Michael Roemelt        : Original ROCIS implementation                 
  Masaaki Saitow         : Open-shell DLPNO-CCSD energy and density      
  Barbara Sandhoefer     : DKH picture change effects                    
  Kantharuban Sivalingam : CASSCF convergence/infrastructure, NEVPT2 and variants, FIC-MRCI 
  Bernardo de Souza      : ESD, SOC TD-DFT                               
  Georgi L. Stoychev     : AutoAux, RI-MP2 NMR, DLPNO-MP2 response, X2C  
  Van Anh Tran           : RI-MP2 g-tensors                              
  Willem Van den Heuvel  : Paramagnetic NMR                              
  Zikuan Wang            : NOTCH, Electric field optimization            
  Frank Wennmohs         : Technical directorship and infrastructure     
  Hang Xu                : AUTO-CI-Response properties                   
                                                                         
[FACCTs GmbH]                                                            
  Markus Bursch, Miquel Garcia-Rates, Christoph Riplinger, Bernardo de Souza, Georgi L. Stoychev 
                                                                 
  APM, Basis sets (HGBS, AHGBS, def-TZVP (Ac-Lr), def2-XVPD (La-Lu)), CI-OPT, improved COSX, DLPNO-Multilevel,           
  DOCKER, DRACO, updates on ESD, GOAT, IRC, LR-CPCM, MBIS, meta-GGA TD-DFT gradient, ML-optimized integration grids, 
  MM, NACMEs, nearIR, NEB, NEB-TS, NL-DFT gradient (VV10), 2- and 3-layer-ONIOM, interface openCOSMO-RS, QMMM,   
  Crystal-QMMM, SF, symmetry and pop. for TD-DFT, r2SCAN hybrids, SOLVATOR                                   
                                                                         
[Other institutions]                                                     
  V. Asgeirsson          : NEB                                           
  Christoph Bannwarth    : sTDA-DFT, sTD-DFT, PBEh-3c, B97-3c, D3        
  Sebastian Ehlert       : rSCAN, r2SCAN, r2SCAN-3c, D4, dhf basis sets  
  Marvin Friede          : D4 for Fr, Ra, Ac-Lr                          
  Lars Goerigk           : TD-DFT with DH, B97 family of functionals     
  Stefan Grimme          : VdW corrections, initial TS optimization, DFT functionals, gCP, sTDA/sTD-DF 
  Waldemar Hujo          : DFT-NL                                        
  H. Jonsson             : NEB                                           
  Holger Kruse           : gCP                                           
  Marcel Mueller         : wB97X-3c, vDZP basis set                      
  Hagen Neugebauer       : wr2SCAN                                       
  Tobias Risthaus        : range-separated hybrid DFT                    
  Lukas Wittmann         : regularized MP2, r2SCAN double-hybrids, wr2SCAN        
                                                                         
We gratefully acknowledge several colleagues who have allowed us to      
interface, adapt or use parts of their codes:                            
  Ed Valeev, F. Pavosevic, A. Kumar             : LibInt (2-el integral package), F12 methods 
  Garnet Chan, S. Sharma, J. Yang, R. Olivares  : DMRG                   
  Ulf Ekstrom                                   : XCFun DFT Library      
  Mihaly Kallay                                 : mrcc  (arbitrary order and MRCC methods)
  Frank Weinhold                                : gennbo (NPA and NBO analysis)           
  Simon Mueller                                 : openCOSMO-RS                            
  Christopher J. Cramer and Donald G. Truhlar   : smd solvation model                     
  S Lehtola, MJT Oliveira, MAL Marques          : LibXC Library                           
  Liviu Ungur et al                             : ANISO software                          


 Your calculation uses the libint2 library for the computation of 2-el integrals
 For citations please refer to: http://libint.valeyev.net

 Your ORCA version has been built with support for libXC version: 6.2.2
 For citations please refer to: https://libxc.gitlab.io

 This ORCA versions uses:
   CBLAS   interface :  Fast vector & matrix operations
   LAPACKE interface :  Fast linear algebra routines
   SCALAPACK package :  Parallel linear algebra routines
   Shared memory     :  Shared parallel matrices
   BLAS/LAPACK       :  OpenBLAS 0.3.27  USE64BITINT DYNAMIC_ARCH NO_AFFINITY SapphireRapids SINGLE_THREADED
        Core in use  :  SapphireRapids
   Copyright (c) 2011-2014, The OpenBLAS Project


Warning! Weird basis set assignment to AuxJK basis!


***************************************
The coordinates will be read from file: /g/data/kx58/rs2200/dhdft/inputs/compas3D-xyzs/hc_c36h18_0pent_42.xyz
***************************************


Your calculation utilizes the atom-pairwise dispersion correction
based on EEQ partial charges (D4)


================================================================================

----- Orbital basis set information -----
Your calculation utilizes the basis: def2-QZVPP
   F. Weigend and R. Ahlrichs, Phys. Chem. Chem. Phys. 7, 3297 (2005).

----- AuxC basis set information -----
Your calculation utilizes the auxiliary basis: def2-QZVPP/C
  H-La, Hf-Rn : A. Hellweg, C. Hattig, S. Hofener and W. Klopper, Theor. Chem. Acc. 117, 587 (2007).
        Ce-Lu : J. Chmela and M. E. Harding, Mol. Phys. (2018).

----- AuxJK basis set information -----
Your calculation utilizes the auxiliary basis: def2-QZVPP/C
  H-La, Hf-Rn : A. Hellweg, C. Hattig, S. Hofener and W. Klopper, Theor. Chem. Acc. 117, 587 (2007).
        Ce-Lu : J. Chmela and M. E. Harding, Mol. Phys. (2018).

================================================================================
                                        WARNINGS
                       Please study these warnings very carefully!
================================================================================


WARNING: No MP2 level density has been requested!
         To calculate MP2 level properties use
         %mp2 Density relaxed end
         or
         %mp2 Density unrelaxed end
         Otherwise for double-hybrid DFT only the energy is correct!

================================================================================
                                       INPUT FILE
================================================================================
NAME = compas3D_hc_c36h18_0pent_42_qz_riri.inp
|  1> ! RKS revDSD-PBEP86-D4/2021 defgrid3  RIJK NOPOP NoFrozencore NoUseSym
|  2> 
|  3> %basis
|  4> Basis "def2-QZVPP"
|  5> AuxJK "def2-QZVPP/C"
|  6> AuxC "def2-QZVPP/C"
|  7> end
|  8> 
|  9> %method
| 10> ScalHFX 0.69
| 11> ScalDFX 0.31
| 12> ScalDFC 0.4038
| 13> ScalLDAC 0.4038
| 14> 
| 15> D4S6 0.4612
| 16> D4S8 0.0
| 17> D4A1 0.44
| 18> D4A2 3.60
| 19> end
| 20> 
| 21> %mp2
| 22> PS 0.5979
| 23> PT 0.0571
| 24> 
| 25> end
| 26> 
| 27> %pal
| 28> nprocs 104
| 29> end
| 30> 
| 31> *XYZFILE 0 1 /g/data/kx58/rs2200/dhdft/inputs/compas3D-xyzs/hc_c36h18_0pent_42.xyz
| 32> 
| 33>                          ****END OF INPUT****
================================================================================

                       ****************************
                       * Single Point Calculation *
                       ****************************

---------------------------------
CARTESIAN COORDINATES (ANGSTROEM)
---------------------------------
  C      1.202705   -0.356724   -0.002612
  C      0.033133    0.435519    0.001239
  C      0.143224    1.894906    0.011731
  C      1.414944    2.508414    0.008465
  C      2.619820    1.727543   -0.002072
  C      2.515189    0.257203    0.003887
  C      1.092276   -1.776985   -0.008886
  C     -0.177088   -2.347594   -0.017649
  C     -1.346409   -1.592726   -0.016826
  C     -1.242245   -0.171997   -0.003374
  C     -2.447462    0.632265    0.006388
  C     -2.330395    2.101551    0.024156
  C     -1.021817    2.692526    0.022852
  C     -0.907716    4.122593    0.033350
  C      0.355821    4.709994    0.026871
  C      1.516784    3.939445    0.012843
  C      3.620005   -0.544400    0.017411
  C      3.551642   -1.970564    0.013254
  C      2.291212   -2.607715   -0.003811
  C     -2.656775   -2.233663   -0.027926
  C     -3.806983   -1.414045   -0.019528
  C     -3.660209    0.005939   -0.001391
  C     -3.434291    2.927781    0.041123
  C     -3.317300    4.336415    0.053967
  C     -2.086489    4.923714    0.049091
  C      2.802599    4.554288    0.001385
  C      3.931151    3.788826   -0.016041
  C      3.835287    2.378578   -0.018570
  C      4.731555   -2.747504    0.023675
  C      4.672659   -4.122599    0.015909
  C      3.421575   -4.761340   -0.002988
  C      2.259566   -4.017533   -0.012607
  C     -2.838028   -3.632086   -0.047876
  C     -4.099027   -4.192044   -0.057887
  C     -5.239733   -3.372082   -0.048502
  C     -5.090638   -2.003934   -0.029793
  H     -0.258863   -3.429353   -0.023137
  H      0.438060    5.799206    0.032048
  H      4.616929   -0.105833    0.031694
  H     -4.580228    0.588917    0.004976
  H     -4.436210    2.501650    0.044790
  H     -4.222365    4.946667    0.067109
  H     -1.980409    6.010406    0.057529
  H      2.861201    5.644618    0.004753
  H      4.917429    4.256634   -0.028088
  H      4.761757    1.806848   -0.034954
  H      5.696183   -2.234881    0.037445
  H      5.589900   -4.714549    0.023885
  H      3.366223   -5.851675   -0.010073
  H      1.306552   -4.544613   -0.027524
  H     -1.975469   -4.297083   -0.056793
  H     -4.208724   -5.278162   -0.073555
  H     -6.235618   -3.819261   -0.056511
  H     -5.966891   -1.351501   -0.022852

----------------------------
CARTESIAN COORDINATES (A.U.)
----------------------------
  NO LB      ZA    FRAG     MASS         X           Y           Z
   0 C     6.0000    0    12.011    2.272784   -0.674111   -0.004935
   1 C     6.0000    0    12.011    0.062611    0.823012    0.002341
   2 C     6.0000    0    12.011    0.270654    3.580853    0.022168
   3 C     6.0000    0    12.011    2.673857    4.740216    0.015996
   4 C     6.0000    0    12.011    4.950742    3.264582   -0.003916
   5 C     6.0000    0    12.011    4.753018    0.486043    0.007346
   6 C     6.0000    0    12.011    2.064102   -3.358014   -0.016792
   7 C     6.0000    0    12.011   -0.334648   -4.436309   -0.033352
   8 C     6.0000    0    12.011   -2.544345   -3.009815   -0.031797
   9 C     6.0000    0    12.011   -2.347502   -0.325026   -0.006375
  10 C     6.0000    0    12.011   -4.625034    1.194807    0.012072
  11 C     6.0000    0    12.011   -4.403809    3.971357    0.045648
  12 C     6.0000    0    12.011   -1.930954    5.088137    0.043183
  13 C     6.0000    0    12.011   -1.715335    7.790572    0.063022
  14 C     6.0000    0    12.011    0.672405    8.900598    0.050779
  15 C     6.0000    0    12.011    2.866305    7.444472    0.024269
  16 C     6.0000    0    12.011    6.840819   -1.028767    0.032902
  17 C     6.0000    0    12.011    6.711632   -3.723825    0.025047
  18 C     6.0000    0    12.011    4.329764   -4.927867   -0.007201
  19 C     6.0000    0    12.011   -5.020577   -4.221012   -0.052772
  20 C     6.0000    0    12.011   -7.194156   -2.672158   -0.036903
  21 C     6.0000    0    12.011   -6.916793    0.011223   -0.002628
  22 C     6.0000    0    12.011   -6.489869    5.532704    0.077712
  23 C     6.0000    0    12.011   -6.268789    8.194638    0.101983
  24 C     6.0000    0    12.011   -3.942892    9.304472    0.092768
  25 C     6.0000    0    12.011    5.296144    8.606357    0.002617
  26 C     6.0000    0    12.011    7.428799    7.159843   -0.030313
  27 C     6.0000    0    12.011    7.247642    4.494861   -0.035093
  28 C     6.0000    0    12.011    8.941343   -5.192030    0.044740
  29 C     6.0000    0    12.011    8.830046   -7.790583    0.030064
  30 C     6.0000    0    12.011    6.465839   -8.997629   -0.005647
  31 C     6.0000    0    12.011    4.269962   -7.592037   -0.023823
  32 C     6.0000    0    12.011   -5.363095   -6.863648   -0.090473
  33 C     6.0000    0    12.011   -7.746039   -7.921815   -0.109390
  34 C     6.0000    0    12.011   -9.901660   -6.372311   -0.091656
  35 C     6.0000    0    12.011   -9.619911   -3.786887   -0.056300
  36 H     1.0000    0     1.008   -0.489180   -6.480539   -0.043723
  37 H     1.0000    0     1.008    0.827814   10.958911    0.060562
  38 H     1.0000    0     1.008    8.724732   -0.199994    0.059894
  39 H     1.0000    0     1.008   -8.655376    1.112892    0.009403
  40 H     1.0000    0     1.008   -8.383223    4.727433    0.084641
  41 H     1.0000    0     1.008   -7.979113    9.347846    0.126817
  42 H     1.0000    0     1.008   -3.742430   11.358021    0.108714
  43 H     1.0000    0     1.008    5.406886   10.666783    0.008981
  44 H     1.0000    0     1.008    9.292594    8.043873   -0.053078
  45 H     1.0000    0     1.008    8.998417    3.414447   -0.066054
  46 H     1.0000    0     1.008   10.764226   -4.223314    0.070761
  47 H     1.0000    0     1.008   10.563380   -8.909206    0.045137
  48 H     1.0000    0     1.008    6.361239  -11.058063   -0.019036
  49 H     1.0000    0     1.008    2.469025   -8.588075   -0.052013
  50 H     1.0000    0     1.008   -3.733096   -8.120309   -0.107323
  51 H     1.0000    0     1.008   -7.953337   -9.974281   -0.138999
  52 H     1.0000    0     1.008  -11.783609   -7.217357   -0.106790
  53 H     1.0000    0     1.008  -11.275789   -2.553967   -0.043183

--------------------------------
INTERNAL COORDINATES (ANGSTROEM)
--------------------------------
 C      0   0   0     0.000000000000     0.00000000     0.00000000
 C      1   0   0     1.412644751390     0.00000000     0.00000000
 C      2   1   0     1.463570830668   119.79917245     0.00000000
 C      3   2   1     1.411975822243   120.06576356     0.44619771
 C      4   3   2     1.435826261264   121.29932796   359.86017052
 C      1   2   3     1.448986111588   120.81753467     0.00000000
 C      1   2   3     1.424560832134   119.66725759   179.81757032
 C      7   1   2     1.391745998529   118.65189873     0.30920283
 C      8   7   1     1.391811045377   122.94924260   359.81624531
 C      2   1   3     1.412686634520   120.41580250   180.07528404
 C     10   2   1     1.448958660908   120.81133276   179.72989091
 C     11  10   2     1.474050389327   119.16261332   359.87255329
 C      3   2   1     1.411963257576   120.08448889   180.33883113
 C     13   3   2     1.434650373972   119.83678530   179.98874388
 C     14  13   3     1.393416069381   119.49136049     0.26347868
 C     15  14  13     1.393476011757   121.49509333   359.88087408
 C      6   1   2     1.365053142846   118.96986659   179.15828960
 C     17   6   1     1.427807011197   123.21452386     0.59161054
 C     18  17   6     1.412422192070   119.56090499   359.91350781
 C      9   8   7     1.458760526353   121.08937725   179.92237035
 C     20   9   8     1.412382549329   118.45800905   179.67863382
 C     11  10   2     1.364953760754   118.96624150   179.86112889
 C     12  11  10     1.378958911434   122.26284937   180.34111275
 C     23  12  11     1.413542800444   122.06934981   180.19907137
 C     24  23  12     1.363759645126   120.25270576     0.03505032
 C     16  15  14     1.425301262945   120.87379709   179.76723182
 C     26  16  15     1.363769270297   120.29926358   180.18213715
 C      5   4   3     1.378941602887   118.88099185   179.34849734
 C     18  17   6     1.412776656487   120.61696679   179.80209924
 C     29  18  17     1.376377657564   120.90708267   180.18584919
 C     30  29  18     1.404834555337   119.50061957     0.00000000
 C     31  30  29     1.379712133219   120.33226998   359.94718342
 C     20   9   8     1.410261244851   123.45217598   359.61896393
 C     33  20   9     1.379772800381   121.33157025   180.00623659
 C     34  33  20     1.404861268943   120.34179876     0.00000000
 C     35  34  33     1.376374662745   119.49227471     0.02741499
 H      8   7   1     1.084859822704   118.52909728   179.95667921
 H     15  14  13     1.092324858801   119.24869498   179.82802112
 H     17   6   1     1.089221200969   120.29554104   180.55907883
 H     22  11  10     1.089192008576   120.32170673   180.04297610
 H     23  12  11     1.088780993984   120.14563966     0.18541748
 H     24  23  12     1.091659839974   119.24621211   179.99325385
 H     25  24  23     1.091889384165   121.08110761   179.91833979
 H     26  16  15     1.091909227854   118.62964795     0.05612596
 H     27  26  16     1.091666001432   120.48095507   179.80291940
 H     28   5   4     1.088802638847   120.15217294   180.49683451
 H     29  18  17     1.092465052172   118.65184466     0.14808837
 H     30  29  18     1.091695348325   120.37989283   179.98863038
 H     31  30  29     1.091761386567   119.95485755   179.95038019
 H     32  31  30     1.089161932365   118.43352065   179.98312129
 H     33  20   9     1.089177221597   120.24887370   359.94270463
 H     34  33  20     1.091756647765   119.71394148   179.98633482
 H     35  34  33     1.091704747103   120.10442191   179.99792645
 H     36  35  34     1.092490751477   120.45295127   179.96513639

---------------------------
INTERNAL COORDINATES (A.U.)
---------------------------
 C      0   0   0     0.000000000000     0.00000000     0.00000000
 C      1   0   0     2.669511704647     0.00000000     0.00000000
 C      2   1   0     2.765748047557   119.79917245     0.00000000
 C      3   2   1     2.668247611757   120.06576356     0.44619771
 C      4   3   2     2.713318409681   121.29932796   359.86017052
 C      1   2   3     2.738186922757   120.81753467     0.00000000
 C      1   2   3     2.692029833844   119.66725759   179.81757032
 C      7   1   2     2.630018785201   118.65189873     0.30920283
 C      8   7   1     2.630141705929   122.94924260   359.81624531
 C      2   1   3     2.669590852294   120.41580250   180.07528404
 C     10   2   1     2.738135048489   120.81133276   179.72989091
 C     11  10   2     2.785551543427   119.16261332   359.87255329
 C      3   2   1     2.668223867978   120.08448889   180.33883113
 C     13   3   2     2.711096304735   119.83678530   179.98874388
 C     14  13   3     2.633174761736   119.49136049     0.26347868
 C     15  14  13     2.633288036410   121.49509333   359.88087408
 C      6   1   2     2.579576598228   118.96986659   179.15828960
 C     17   6   1     2.698164223255   123.21452386     0.59161054
 C     18  17   6     2.669091128484   119.56090499   359.91350781
 C      9   8   7     2.756657889783   121.08937725   179.92237035
 C     20   9   8     2.669016214561   118.45800905   179.67863382
 C     11  10   2     2.579388793292   118.96624150   179.86112889
 C     12  11  10     2.605854692541   122.26284937   180.34111275
 C     23  12  11     2.671208771416   122.06934981   180.19907137
 C     24  23  12     2.577132241782   120.25270576     0.03505032
 C     16  15  14     2.693429045298   120.87379709   179.76723182
 C     26  16  15     2.577150430720   120.29926358   180.18213715
 C      5   4   3     2.605821984128   118.88099185   179.34849734
 C     18  17   6     2.669760969157   120.61696679   179.80209924
 C     29  18  17     2.600976829645   120.90708267   180.18584919
 C     30  29  18     2.654752573055   119.50061957     0.00000000
 C     31  30  29     2.607278075432   120.33226998   359.94718342
 C     20   9   8     2.665007530051   123.45217598   359.61896393
 C     33  20   9     2.607392719754   121.33157025   180.00623659
 C     34  33  20     2.654803054454   120.34179876     0.00000000
 C     35  34  33     2.600971170256   119.49227471     0.02741499
 H      8   7   1     2.050087958605   118.52909728   179.95667921
 H     15  14  13     2.064194832407   119.24869498   179.82802112
 H     17   6   1     2.058329769093   120.29554104   180.55907883
 H     22  11  10     2.058274603464   120.32170673   180.04297610
 H     23  12  11     2.057497898448   120.14563966     0.18541748
 H     24  23  12     2.062938128952   119.24621211   179.99325385
 H     25  24  23     2.063371904608   121.08110761   179.91833979
 H     26  16  15     2.063409403746   118.62964795     0.05612596
 H     27  26  16     2.062949772420   120.48095507   179.80291940
 H     28   5   4     2.057538801311   120.15217294   180.49683451
 H     29  18  17     2.064459759486   118.65184466     0.14808837
 H     30  29  18     2.063005230011   120.37989283   179.98863038
 H     31  30  29     2.063130024202   119.95485755   179.95038019
 H     32  31  30     2.058217767662   118.43352065   179.98312129
 H     33  20   9     2.058246660123   120.24887370   359.94270463
 H     34  33  20     2.063121069163   119.71394148   179.98633482
 H     35  34  33     2.063022991127   120.10442191   179.99792645
 H     36  35  34     2.064508324133   120.45295127   179.96513639

---------------------
BASIS SET INFORMATION
---------------------
There are 2 groups of distinct atoms

 Group   1 Type C   : 15s8p3d2f1g contracted to 7s4p3d2f1g pattern {8211111/5111/111/11/1}
 Group   2 Type H   : 7s3p2d1f contracted to 4s3p2d1f pattern {4111/111/11/1}

Atom   0C    basis set group =>   1
Atom   1C    basis set group =>   1
Atom   2C    basis set group =>   1
Atom   3C    basis set group =>   1
Atom   4C    basis set group =>   1
Atom   5C    basis set group =>   1
Atom   6C    basis set group =>   1
Atom   7C    basis set group =>   1
Atom   8C    basis set group =>   1
Atom   9C    basis set group =>   1
Atom  10C    basis set group =>   1
Atom  11C    basis set group =>   1
Atom  12C    basis set group =>   1
Atom  13C    basis set group =>   1
Atom  14C    basis set group =>   1
Atom  15C    basis set group =>   1
Atom  16C    basis set group =>   1
Atom  17C    basis set group =>   1
Atom  18C    basis set group =>   1
Atom  19C    basis set group =>   1
Atom  20C    basis set group =>   1
Atom  21C    basis set group =>   1
Atom  22C    basis set group =>   1
Atom  23C    basis set group =>   1
Atom  24C    basis set group =>   1
Atom  25C    basis set group =>   1
Atom  26C    basis set group =>   1
Atom  27C    basis set group =>   1
Atom  28C    basis set group =>   1
Atom  29C    basis set group =>   1
Atom  30C    basis set group =>   1
Atom  31C    basis set group =>   1
Atom  32C    basis set group =>   1
Atom  33C    basis set group =>   1
Atom  34C    basis set group =>   1
Atom  35C    basis set group =>   1
Atom  36H    basis set group =>   2
Atom  37H    basis set group =>   2
Atom  38H    basis set group =>   2
Atom  39H    basis set group =>   2
Atom  40H    basis set group =>   2
Atom  41H    basis set group =>   2
Atom  42H    basis set group =>   2
Atom  43H    basis set group =>   2
Atom  44H    basis set group =>   2
Atom  45H    basis set group =>   2
Atom  46H    basis set group =>   2
Atom  47H    basis set group =>   2
Atom  48H    basis set group =>   2
Atom  49H    basis set group =>   2
Atom  50H    basis set group =>   2
Atom  51H    basis set group =>   2
Atom  52H    basis set group =>   2
Atom  53H    basis set group =>   2
---------------------------------
AUXILIARY/C BASIS SET INFORMATION
---------------------------------
There are 2 groups of distinct atoms

 Group   1 Type C   : 9s8p7d5f3g1h contracted to 9s8p7d5f3g1h pattern {111111111/11111111/1111111/11111/111/1}
 Group   2 Type H   : 6s4p3d2f1g contracted to 6s4p3d2f1g pattern {111111/1111/111/11/1}

Atom   0C    basis set group =>   1
Atom   1C    basis set group =>   1
Atom   2C    basis set group =>   1
Atom   3C    basis set group =>   1
Atom   4C    basis set group =>   1
Atom   5C    basis set group =>   1
Atom   6C    basis set group =>   1
Atom   7C    basis set group =>   1
Atom   8C    basis set group =>   1
Atom   9C    basis set group =>   1
Atom  10C    basis set group =>   1
Atom  11C    basis set group =>   1
Atom  12C    basis set group =>   1
Atom  13C    basis set group =>   1
Atom  14C    basis set group =>   1
Atom  15C    basis set group =>   1
Atom  16C    basis set group =>   1
Atom  17C    basis set group =>   1
Atom  18C    basis set group =>   1
Atom  19C    basis set group =>   1
Atom  20C    basis set group =>   1
Atom  21C    basis set group =>   1
Atom  22C    basis set group =>   1
Atom  23C    basis set group =>   1
Atom  24C    basis set group =>   1
Atom  25C    basis set group =>   1
Atom  26C    basis set group =>   1
Atom  27C    basis set group =>   1
Atom  28C    basis set group =>   1
Atom  29C    basis set group =>   1
Atom  30C    basis set group =>   1
Atom  31C    basis set group =>   1
Atom  32C    basis set group =>   1
Atom  33C    basis set group =>   1
Atom  34C    basis set group =>   1
Atom  35C    basis set group =>   1
Atom  36H    basis set group =>   2
Atom  37H    basis set group =>   2
Atom  38H    basis set group =>   2
Atom  39H    basis set group =>   2
Atom  40H    basis set group =>   2
Atom  41H    basis set group =>   2
Atom  42H    basis set group =>   2
Atom  43H    basis set group =>   2
Atom  44H    basis set group =>   2
Atom  45H    basis set group =>   2
Atom  46H    basis set group =>   2
Atom  47H    basis set group =>   2
Atom  48H    basis set group =>   2
Atom  49H    basis set group =>   2
Atom  50H    basis set group =>   2
Atom  51H    basis set group =>   2
Atom  52H    basis set group =>   2
Atom  53H    basis set group =>   2
----------------------------------
AUXILIARY/JK BASIS SET INFORMATION
----------------------------------
There are 2 groups of distinct atoms

 Group   1 Type C   : 9s8p7d5f3g1h contracted to 9s8p7d5f3g1h pattern {111111111/11111111/1111111/11111/111/1}
 Group   2 Type H   : 6s4p3d2f1g contracted to 6s4p3d2f1g pattern {111111/1111/111/11/1}

Atom   0C    basis set group =>   1
Atom   1C    basis set group =>   1
Atom   2C    basis set group =>   1
Atom   3C    basis set group =>   1
Atom   4C    basis set group =>   1
Atom   5C    basis set group =>   1
Atom   6C    basis set group =>   1
Atom   7C    basis set group =>   1
Atom   8C    basis set group =>   1
Atom   9C    basis set group =>   1
Atom  10C    basis set group =>   1
Atom  11C    basis set group =>   1
Atom  12C    basis set group =>   1
Atom  13C    basis set group =>   1
Atom  14C    basis set group =>   1
Atom  15C    basis set group =>   1
Atom  16C    basis set group =>   1
Atom  17C    basis set group =>   1
Atom  18C    basis set group =>   1
Atom  19C    basis set group =>   1
Atom  20C    basis set group =>   1
Atom  21C    basis set group =>   1
Atom  22C    basis set group =>   1
Atom  23C    basis set group =>   1
Atom  24C    basis set group =>   1
Atom  25C    basis set group =>   1
Atom  26C    basis set group =>   1
Atom  27C    basis set group =>   1
Atom  28C    basis set group =>   1
Atom  29C    basis set group =>   1
Atom  30C    basis set group =>   1
Atom  31C    basis set group =>   1
Atom  32C    basis set group =>   1
Atom  33C    basis set group =>   1
Atom  34C    basis set group =>   1
Atom  35C    basis set group =>   1
Atom  36H    basis set group =>   2
Atom  37H    basis set group =>   2
Atom  38H    basis set group =>   2
Atom  39H    basis set group =>   2
Atom  40H    basis set group =>   2
Atom  41H    basis set group =>   2
Atom  42H    basis set group =>   2
Atom  43H    basis set group =>   2
Atom  44H    basis set group =>   2
Atom  45H    basis set group =>   2
Atom  46H    basis set group =>   2
Atom  47H    basis set group =>   2
Atom  48H    basis set group =>   2
Atom  49H    basis set group =>   2
Atom  50H    basis set group =>   2
Atom  51H    basis set group =>   2
Atom  52H    basis set group =>   2
Atom  53H    basis set group =>   2


           ************************************************************
           *        Program running with 104 parallel MPI-processes   *
           *              working on a common directory               *
           ************************************************************
------------------------------------------------------------------------------
                             ORCA STARTUP CALCULATIONS
                           -- RI-GTO INTEGRALS CHOSEN --
------------------------------------------------------------------------------
------------------------------------------------------------------------------
                   ___                                                        
                  /   \      - P O W E R E D   B Y -                         
                 /     \                                                     
                 |  |  |   _    _      __       _____    __    __             
                 |  |  |  | |  | |    /  \     |  _  \  |  |  /  |          
                  \  \/   | |  | |   /    \    | | | |  |  | /  /          
                 / \  \   | |__| |  /  /\  \   | |_| |  |  |/  /          
                |  |  |   |  __  | /  /__\  \  |    /   |      \           
                |  |  |   | |  | | |   __   |  |    \   |  |\   \          
                \     /   | |  | | |  |  |  |  | |\  \  |  | \   \       
                 \___/    |_|  |_| |__|  |__|  |_| \__\ |__|  \__/        
                                                                              
                      - O R C A' S   B I G   F R I E N D -                    
                                      &                                       
                       - I N T E G R A L  F E E D E R -                       
                                                                              
 v1 FN, 2020, v2 2021, v3 2022-2024                                           
------------------------------------------------------------------------------


----------------------
SHARK INTEGRAL PACKAGE
----------------------

Number of atoms                             ...     54
Number of basis functions                   ...   2592
Number of shells                            ...    792
Maximum angular momentum                    ...      4
Integral batch strategy                     ... SHARK/LIBINT Hybrid
RI-J (if used) integral strategy            ... SPLIT-RIJ (Revised 2003 algorithm where possible)
Printlevel                                  ...      1
Contraction scheme used                     ... SEGMENTED contraction
Prescreening option                         ... SCHWARTZ
   Thresh                                   ... 1.000e-10
   Tcut                                     ... 1.000e-11
   Tpresel                                  ... 1.000e-11 
Coulomb Range Separation                    ... NOT USED
Exchange Range Separation                   ... NOT USED
Multipole approximations                    ... NOT USED
Finite Nucleus Model                        ... NOT USED
CABS basis                                  ... NOT available
Auxiliary Coulomb fitting basis             ... NOT available
Auxiliary J/K fitting basis                 ... AVAILABLE
   # of basis functions in Aux-JK           ...   6084
   # of shells in Aux-JK                    ...   1476
   Maximum angular momentum in Aux-JK       ...      5
Auxiliary Correlation fitting basis         ... AVAILABLE
   # of basis functions in Aux-C            ...   6084
   # of shells in Aux-C                     ...   1476
   Maximum angular momentum in Aux-C        ...      5
Auxiliary 'external' fitting basis          ... NOT available

Checking pre-screening integrals            ... done (  0.0 sec) Dimension = 792
Check shell pair data                       ... done (  0.1 sec)
Shell pair information
Shell pair cut-off parameter TPreSel        ...   1.0e-11
Total number of shell pairs                 ...    314028
Shell pairs after pre-screening             ...    156649
Total number of primitive shell pairs       ...    818793
Primitive shell pairs kept                  ...    272121
          la=0 lb=0:  23396 shell pairs
          la=1 lb=0:  36131 shell pairs
          la=1 lb=1:  12894 shell pairs
          la=2 lb=0:  20816 shell pairs
          la=2 lb=1:  16299 shell pairs
          la=2 lb=2:   4921 shell pairs
          la=3 lb=0:  12438 shell pairs
          la=3 lb=1:   9666 shell pairs
          la=3 lb=2:   5613 shell pairs
          la=3 lb=3:   1645 shell pairs
          la=4 lb=0:   4993 shell pairs
          la=4 lb=1:   3964 shell pairs
          la=4 lb=2:   2268 shell pairs
          la=4 lb=3:   1314 shell pairs
          la=4 lb=4:    291 shell pairs

Calculating one electron integrals          ... done (  0.9 sec)
Calculating RI/JK V-Matrix + Cholesky decomp... done (  2.2 sec)
Calculating RI/C V-Matrix + Cholesky decomp.... done (  2.1 sec)
Calculating Nuclear repulsion               ... done (  0.0 sec) ENN=   3383.551190249515 Eh

Diagonalization of the overlap matrix:
Smallest eigenvalue                        ... 4.083e-08
Time for diagonalization                   ...    1.034 sec
Threshold for overlap eigenvalues          ... 1.000e-07
Number of eigenvalues below threshold      ... 2
Smallest eigenvalue above threshold        ... 3.893e-07

IMPORTANT:
Smallest eigenvalue of S below the DiffSThresh (1.000e-06) while
Thresh>1e-12 and/or TCut>1e-13! In order to avoid SCF convergence issues,
Thresh will be set to at least 1e-12 and TCut to at least 1e-13.
This can be turned off by adding %SCF DiffSThresh -1 END to the input.

Time for construction of square roots      ...    0.701 sec
Total time needed                          ...    1.813 sec

-------------------
DFT GRID GENERATION
-------------------

General Integration Accuracy     IntAcc      ... 4.959
Radial Grid Type                 RadialGrid  ... OptM3 with GC (2021)
Angular Grid (max. ang.)         AngularGrid ... 6 (Lebedev-590)
Angular grid pruning method      GridPruning ... 4 (adaptive)
Weight generation scheme         WeightScheme... mBecke (2022)
Basis function cutoff            BFCut       ... 1.0000e-10
Integration weight cutoff        WCut        ... 1.0000e-14
Partially contracted basis set               ... off
Rotationally invariant grid construction     ... off
Angular grids for H and He will be reduced by one unit
Diffuse basis detected: some atoms will have their outermost
                        angular grid increased by 1.

Total number of grid points                  ...   672136
Total number of batches                      ...    10528
Average number of points per batch           ...       63
Average number of grid points per atom       ...    12447
Initializing property integral containers    ... done (  0.1 sec)

SHARK setup successfully completed in  17.0 seconds

Maximum memory used throughout the entire STARTUP-calculation: 316.8 MB


           ************************************************************
           *        Program running with 104 parallel MPI-processes   *
           *              working on a common directory               *
           ************************************************************
-------------------------------------------------------------------------------
                                 ORCA GUESS
                   Start orbitals & Density for SCF / CASSCF
-------------------------------------------------------------------------------

------------
SCF SETTINGS
------------
Hamiltonian:
 Density Functional     Method          .... DFT(GTOs)
 Exchange Functional    Exchange        .... PBE
   PBE kappa parameter   XKappa         ....  0.804000
   PBE mue parameter    XMuePBE         ....  0.219520
 Correlation Functional Correlation     .... P86
 LDA part of GGA corr.  LDAOpt          .... VWN-5
 Gradients option       PostSCFGGA      .... off
 Hybrid DFT is turned on
   Fraction HF Exchange ScalHFX         ....  0.690000
   Scaling of DF-GGA-X  ScalDFX         ....  0.310000
   Scaling of DF-GGA-C  ScalDFC         ....  0.403800
   Scaling of DF-LDA-C  ScalLDAC        ....  0.403800
   Perturbative correction              ....  1.000000
 RI-approximation to the Coulomb term is turned on
   Number of AuxJK basis functions      .... 6084
   RI-JK (J+K treated both via RI)      .... on


General Settings:
 Integral files         IntName         .... compas3D_hc_c36h18_0pent_42_qz_riri
 Hartree-Fock type      HFTyp           .... RHF
 Total Charge           Charge          ....    0
 Multiplicity           Mult            ....    1
 Number of Electrons    NEL             ....  234
 Basis Dimension        Dim             .... 2592
 Nuclear Repulsion      ENuc            ....   3383.5511902495 Eh

Convergence Acceleration:
 AO-DIIS                CNVDIIS         .... on
   Start iteration      DIISMaxIt       ....    12
   Startup error        DIISStart       ....  0.200000
   # of expansion vecs  DIISMaxEq       ....     5
   Bias factor          DIISBfac        ....   1.050
   Max. coefficient     DIISMaxC        ....  10.000
 MO-DIIS                CNVKDIIS        .... off
 Trust-Rad. Augm. Hess. CNVTRAH         .... auto
   Auto Start mean grad. ratio tolernc. ....  1.125000
   Auto Start start iteration           ....    50
   Auto Start num. interpolation iter.  ....    10
   Max. Number of Micro iterations      ....    24
   Max. Number of Macro iterations      .... Maxiter - #DIIS iter
   Number of Davidson start vectors     ....     2
   Converg. threshold    (grad. norm)   ....   5.000e-05
   Grad. Scal. Fac. for Micro threshold ....   0.100
   Minimum threshold for Micro iter.    ....   1.000e-02
   NR start threshold (gradient norm)   ....   1.000e-04
   Initial trust radius                 ....   0.400
   Minimum AH scaling param. (alpha)    ....   1.000
   Maximum AH scaling param. (alpha)    .... 1000.000
   Quad. conv. algorithm                .... NR
   White noise on init. David. guess    .... on
   Maximum white noise                  ....   0.010
   Pseudo random numbers                .... off
   Inactive MOs                         .... canonical
   Orbital update algorithm             .... Taylor
   Preconditioner                       .... Diag
   Full preconditioner red. dimension   ....   250
 SOSCF                  CNVSOSCF        .... on
   Start iteration      SOSCFMaxIt      ....   150
   Startup grad/error   SOSCFStart      ....  0.003300
   Hessian update       SOSCFHessUp     .... L-BFGS
 Level Shifting         CNVShift        .... on
   Level shift para.    LevelShift      ....    0.2500
   Turn off err/grad.   ShiftErr        ....    0.0010
 Zerner damping         CNVZerner       .... off
 Static damping         CNVDamp         .... on
   Fraction old density DampFac         ....    0.7000
   Max. Damping (<1)    DampMax         ....    0.9800
   Min. Damping (>=0)   DampMin         ....    0.0000
   Turn off err/grad.   DampErr         ....    0.1000

SCF Procedure:
 Maximum # iterations   MaxIter         ....   125
 SCF integral mode      SCFMode         .... Direct
   Integral package                     .... SHARK and LIBINT hybrid scheme
 Reset frequency        DirectResetFreq ....    20
 Integral Threshold     Thresh          ....  1.000e-12 Eh
 Primitive CutOff       TCut            ....  1.000e-13 Eh

Convergence Tolerance:
 Convergence Check Mode ConvCheckMode   .... Total+1el-Energy
 Convergence forced     ConvForced      .... 0
 Energy Change          TolE            ....  1.000e-06 Eh
 1-El. energy change                    ....  1.000e-03 Eh
 Orbital Gradient       TolG            ....  5.000e-05
 Orbital Rotation angle TolX            ....  5.000e-05
 DIIS Error             TolErr          ....  1.000e-06

------------------------------
INITIAL GUESS: MODEL POTENTIAL
------------------------------
Loading Hartree-Fock densities                     ... done
Calculating cut-offs                               ... done
Initializing the effective Hamiltonian             ... done
Setting up the integral package (SHARK)            ... done
Starting the Coulomb interaction                   ... done (   0.7 sec)
Making the grid                                    ... done (   0.6 sec)
Mapping shells                                     ... done
Starting the XC term evaluation                    ... done (   0.2 sec)
  promolecular density results
     # of electrons  =    233.966245160
     EX              =   -189.611215164
     EC              =      0.289570696
     EX+EC           =   -189.321644469
Transforming the Hamiltonian                       ... done (   0.5 sec)
Diagonalizing the Hamiltonian                      ... done (   0.7 sec)
Back transforming the eigenvectors                 ... done (   0.3 sec)
Now organizing SCF variables                       ... done
                      ------------------
                      INITIAL GUESS DONE (   4.1 sec)
                      ------------------
             **** ENERGY FILE WAS UPDATED (compas3D_hc_c36h18_0pent_42_qz_riri.en.tmp) ****
Finished Guess after  22.8 sec
Maximum memory used throughout the entire GUESS-calculation: 354.6 MB


           ************************************************************
           *        Program running with 104 parallel MPI-processes   *
           *              working on a common directory               *
           ************************************************************

-------------------------------------------------------------------------------------------
                                      ORCA LEAN-SCF
                              memory conserving SCF solver
-------------------------------------------------------------------------------------------


Warning (ORCA_SCF): Not enough memory available!
                    Memory available for SCF calculation:       1024.0 MB
                    Memory needed (estimated)           :       1173.3 MB


----------------------------------------D-I-I-S--------------------------------------------
Iteration    Energy (Eh)           Delta-E    RMSDP     MaxDP     DIISErr   Damp  Time(sec)
-------------------------------------------------------------------------------------------
    1    -1376.8748503272327071     0.00e+00  2.67e-04  3.23e-02  1.51e-01  0.700  42.5
    2    -1376.6411156352205580     2.34e-01  2.38e-04  3.34e-02  1.33e-01  0.700 127.6
                               ***Turning on AO-DIIS***
    3    -1376.7913382250899303    -1.50e-01  2.11e-04  4.62e-02  8.01e-02  0.700  42.2
    4    -1377.0831516999405721    -2.92e-01  4.93e-04  1.19e-01  4.09e-02  0.000  41.8
    5    -1377.5552497695107377    -4.72e-01  9.23e-05  1.21e-02  3.62e-02  0.000 136.8
    6    -1377.5753710623712323    -2.01e-02  6.29e-05  1.09e-02  1.63e-02  0.000  42.4
    7    -1377.5803699264606621    -5.00e-03  2.62e-05  5.12e-03  5.22e-03  0.000  43.2
                              *** Initializing SOSCF ***
---------------------------------------S-O-S-C-F--------------------------------------
Iteration    Energy (Eh)           Delta-E    RMSDP     MaxDP     MaxGrad    Time(sec)
--------------------------------------------------------------------------------------
    8    -1377.5809743622257884    -6.04e-04  9.66e-06  1.84e-03  1.33e-03   136.6
    9    -1377.5810305118920951    -5.61e-05  5.68e-06  3.94e-04  3.62e-04    41.8
   10    -1377.5810410397498345    -1.05e-05  4.45e-06  5.64e-04  2.62e-04    39.9
   11    -1377.5810433353353801    -2.30e-06  1.82e-06  2.34e-04  1.41e-04    41.1
   12    -1377.5810442810825407    -9.46e-07  7.86e-07  8.69e-05  3.12e-05    40.2
                 **** Energy Check signals convergence ****

               *****************************************************
               *                     SUCCESS                       *
               *           SCF CONVERGED AFTER  12 CYCLES          *
               *****************************************************

             **** ENERGY FILE WAS UPDATED (compas3D_hc_c36h18_0pent_42_qz_riri.en.tmp) ****

----------------
TOTAL SCF ENERGY
----------------

Total Energy       :      -1377.58104428108254 Eh          -37485.88596 eV

Components:
Nuclear Repulsion  :       3383.55119024951455 Eh           92071.10869 eV
Electronic Energy  :      -4761.13223453059709 Eh         -129556.99465 eV
One Electron Energy:      -8595.80395899691575 Eh         -233903.71716 eV
Two Electron Energy:       3834.67172446631866 Eh          104346.72251 eV

Virial components:
Potential Energy   :      -2751.09958428730897 Eh          -74861.22556 eV
Kinetic Energy     :       1373.51854000622666 Eh           37375.33960 eV
Virial Ratio       :          2.00295773530282

DFT components:
N(Alpha)           :      117.000007223642 electrons
N(Beta)            :      117.000007223642 electrons
N(Total)           :      234.000014447285 electrons
E(X)               :      -59.718508255284 Eh       
E(C)               :       -3.501061000760 Eh       
E(XC)              :      -63.219569256044 Eh       

---------------
SCF CONVERGENCE
---------------

  Last Energy change         ...    9.4575e-07  Tolerance :   1.0000e-06
  Last MAX-Density change    ...    8.6937e-05  Tolerance :   1.0000e-05
  Last RMS-Density change    ...    7.8580e-07  Tolerance :   1.0000e-06
  Last DIIS Error            ...    1.3312e-03  Tolerance :   1.0000e-06
  Last Orbital Gradient      ...    3.1162e-05  Tolerance :   5.0000e-05
  Last Orbital Rotation      ...    1.5853e-04  Tolerance :   5.0000e-05


----------------
ORBITAL ENERGIES
----------------

  NO   OCC          E(Eh)            E(eV) 
   0   2.0000     -10.841948      -295.0244 
   1   2.0000     -10.841175      -295.0034 
   2   2.0000     -10.840805      -294.9933 
   3   2.0000     -10.840774      -294.9925 
   4   2.0000     -10.840417      -294.9827 
   5   2.0000     -10.840324      -294.9802 
   6   2.0000     -10.840099      -294.9741 
   7   2.0000     -10.840096      -294.9740 
   8   2.0000     -10.839414      -294.9555 
   9   2.0000     -10.839303      -294.9524 
  10   2.0000     -10.838295      -294.9250 
  11   2.0000     -10.838189      -294.9221 
  12   2.0000     -10.838161      -294.9213 
  13   2.0000     -10.838157      -294.9213 
  14   2.0000     -10.835979      -294.8620 
  15   2.0000     -10.835941      -294.8609 
  16   2.0000     -10.835218      -294.8413 
  17   2.0000     -10.835181      -294.8403 
  18   2.0000     -10.828306      -294.6532 
  19   2.0000     -10.828284      -294.6526 
  20   2.0000     -10.827757      -294.6383 
  21   2.0000     -10.827751      -294.6381 
  22   2.0000     -10.827496      -294.6311 
  23   2.0000     -10.827484      -294.6308 
  24   2.0000     -10.827050      -294.6190 
  25   2.0000     -10.827041      -294.6188 
  26   2.0000     -10.826309      -294.5988 
  27   2.0000     -10.826308      -294.5988 
  28   2.0000     -10.826262      -294.5976 
  29   2.0000     -10.826256      -294.5974 
  30   2.0000     -10.826179      -294.5953 
  31   2.0000     -10.826137      -294.5942 
  32   2.0000     -10.825869      -294.5869 
  33   2.0000     -10.825862      -294.5867 
  34   2.0000     -10.825786      -294.5846 
  35   2.0000     -10.824689      -294.5548 
  36   2.0000      -1.103950       -30.0400 
  37   2.0000      -1.076148       -29.2835 
  38   2.0000      -1.073611       -29.2145 
  39   2.0000      -1.050377       -28.5822 
  40   2.0000      -1.041395       -28.3378 
  41   2.0000      -1.008730       -27.4489 
  42   2.0000      -1.004810       -27.3423 
  43   2.0000      -0.995033       -27.0762 
  44   2.0000      -0.968576       -26.3563 
  45   2.0000      -0.956308       -26.0225 
  46   2.0000      -0.943743       -25.6806 
  47   2.0000      -0.936205       -25.4754 
  48   2.0000      -0.915223       -24.9045 
  49   2.0000      -0.912929       -24.8421 
  50   2.0000      -0.902516       -24.5587 
  51   2.0000      -0.897933       -24.4340 
  52   2.0000      -0.879863       -23.9423 
  53   2.0000      -0.844192       -22.9716 
  54   2.0000      -0.812708       -22.1149 
  55   2.0000      -0.796669       -21.6785 
  56   2.0000      -0.792329       -21.5604 
  57   2.0000      -0.777018       -21.1437 
  58   2.0000      -0.774087       -21.0640 
  59   2.0000      -0.751520       -20.4499 
  60   2.0000      -0.739725       -20.1289 
  61   2.0000      -0.737708       -20.0740 
  62   2.0000      -0.714451       -19.4412 
  63   2.0000      -0.710206       -19.3257 
  64   2.0000      -0.679727       -18.4963 
  65   2.0000      -0.665375       -18.1058 
  66   2.0000      -0.655427       -17.8351 
  67   2.0000      -0.655266       -17.8307 
  68   2.0000      -0.640666       -17.4334 
  69   2.0000      -0.624630       -16.9971 
  70   2.0000      -0.618131       -16.8202 
  71   2.0000      -0.604973       -16.4621 
  72   2.0000      -0.598952       -16.2983 
  73   2.0000      -0.591948       -16.1077 
  74   2.0000      -0.573528       -15.6065 
  75   2.0000      -0.570262       -15.5176 
  76   2.0000      -0.568129       -15.4596 
  77   2.0000      -0.561792       -15.2871 
  78   2.0000      -0.553074       -15.0499 
  79   2.0000      -0.544278       -14.8105 
  80   2.0000      -0.543951       -14.8017 
  81   2.0000      -0.538091       -14.6422 
  82   2.0000      -0.531035       -14.4502 
  83   2.0000      -0.528077       -14.3697 
  84   2.0000      -0.524366       -14.2687 
  85   2.0000      -0.522393       -14.2150 
  86   2.0000      -0.512905       -13.9569 
  87   2.0000      -0.505977       -13.7683 
  88   2.0000      -0.499962       -13.6046 
  89   2.0000      -0.496695       -13.5158 
  90   2.0000      -0.495055       -13.4711 
  91   2.0000      -0.493701       -13.4343 
  92   2.0000      -0.483955       -13.1691 
  93   2.0000      -0.470157       -12.7936 
  94   2.0000      -0.467528       -12.7221 
  95   2.0000      -0.464067       -12.6279 
  96   2.0000      -0.456630       -12.4255 
  97   2.0000      -0.453638       -12.3441 
  98   2.0000      -0.452720       -12.3191 
  99   2.0000      -0.439701       -11.9649 
 100   2.0000      -0.433815       -11.8047 
 101   2.0000      -0.431691       -11.7469 
 102   2.0000      -0.412494       -11.2245 
 103   2.0000      -0.411723       -11.2035 
 104   2.0000      -0.408829       -11.1248 
 105   2.0000      -0.400829       -10.9071 
 106   2.0000      -0.395813       -10.7706 
 107   2.0000      -0.364749        -9.9253 
 108   2.0000      -0.354441        -9.6448 
 109   2.0000      -0.335149        -9.1199 
 110   2.0000      -0.332624        -9.0512 
 111   2.0000      -0.302436        -8.2297 
 112   2.0000      -0.296733        -8.0745 
 113   2.0000      -0.286937        -7.8080 
 114   2.0000      -0.282653        -7.6914 
 115   2.0000      -0.256894        -6.9904 
 116   2.0000      -0.202878        -5.5206 
 117   0.0000      -0.039799        -1.0830 
 118   0.0000       0.008607         0.2342 
 119   0.0000       0.028689         0.7807 
 120   0.0000       0.034079         0.9273 
 121   0.0000       0.046418         1.2631 
 122   0.0000       0.050401         1.3715 
 123   0.0000       0.068946         1.8761 
 124   0.0000       0.073028         1.9872 
 125   0.0000       0.074800         2.0354 
 126   0.0000       0.076943         2.0937 
 127   0.0000       0.083002         2.2586 
*Only the first 10 virtual orbitals were printed.
-------
TIMINGS
-------

Total SCF time: 0 days 0 hours 13 min 15 sec 

Total time                  ....     795.970 sec
Sum of individual times     ....     795.635 sec  (100.0%)

SCF preparation             ....      16.783 sec  (  2.1%)
Fock matrix formation       ....     728.688 sec  ( 91.5%)
  Startup                   ....       3.882 sec  (  0.5% of F)
  RI-JK                     ....     425.910 sec  ( 58.4% of F)
  XC integration            ....     194.692 sec  ( 26.7% of F)
    XC Preparation          ....       0.000 sec  (  0.0% of XC)
    Basis function eval.    ....       1.430 sec  (  0.7% of XC)
    Density eval.           ....       4.003 sec  (  2.1% of XC)
    XC-Functional eval.     ....       0.042 sec  (  0.0% of XC)
    XC-Potential eval.      ....       5.582 sec  (  2.9% of XC)
Diagonalization             ....       0.000 sec  (  0.0%)
Density matrix formation    ....       6.913 sec  (  0.9%)
Total Energy calculation    ....       3.287 sec  (  0.4%)
Population analysis         ....       0.000 sec  (  0.0%)
Orbital Transformation      ....       4.561 sec  (  0.6%)
Orbital Orthonormalization  ....       0.000 sec  (  0.0%)
DIIS solution               ....      27.073 sec  (  3.4%)
SOSCF solution              ....       8.081 sec  (  1.0%)
Finished LeanSCF after 796.9 sec

Maximum memory used throughout the entire LEANSCF-calculation: 1230.1 MB


           ************************************************************
           *        Program running with 104 parallel MPI-processes   *
           *              working on a common directory               *
           ************************************************************

------------------------------------------------------------------------------
                                ORCA  MP2 
------------------------------------------------------------------------------


-------------
RI-MP2 ENERGY
-------------
Dimension of the orbital basis            ... 2592
Dimension of the AuxC basis               ... 6084
Memory devoted to MP2                     ... 4096 MB   
Data format for matrix containers         ... DOUBLE
Compression type for matrix containers    ... UNCOMPRESSED
Scaling for aa/bb pairs                   ...   5.710e-02
Scaling for ab pairs                      ...   5.979e-01
Overall scaling of the MP2 energy         ...   1.000e+00

-----------------------
SHARK RI TRANSFORMATION
-----------------------

Number of basis functions                ...   2592
Number of aux functions                  ...   6084
Number of operators                      ...      1
Generation of IJK                        ... NO
Generation of IAK                        ... YES
Generation of ABK                        ... NO
Orbital Range Operator  0:    0- 116 to  117-2591

Aux basis identifier                     ...   AUXC
Contraction scheme used                  ... SEGMENTED
Do orthogonalization                     ... YES
All operator combinations                ... NO
Transpose (ia|K)                         ... NO
Integral generator used                  ... LIBINT
Starting integral generation + trafo... 
Half trafo (segmented) done. Total time = 16.0 sec. integrals=  3.1 sec trafo= 12.1 sec
Integral generation and half transformation done ( 16.0 sec)

Reading or making V^(-1/2)          ... done (  0.7 sec)
Sorting IAK integrals               ... done ( 18.2 sec)

SHARK RI integral transformation done. Total time = 35.1 sec.

Opening buffers                              ... done

Starting loop over batches of integrals:

Operator 0  - window                       ... (  0-116)x(117-2591)
Operator 0  - Memory available             ...  4096 MB
Operator 0  - Memory needed per MO         ... 114.9 MB
Operator 0  - Number of orbitals per batch ... 2
Operator 0  - Number of batches            ... 1

OPERATOR  0   PASS   0:  MOs     0 ...    1 +    2 ...    3 +    4 ...    5 +    6 ...    7
                            +    8 ...    9 +   10 ...   11 +   12 ...   13 +   14 ...   15
                            +   16 ...   17 +   18 ...   19 +   20 ...   21 +   22 ...   23
                            +   24 ...   25 +   26 ...   27 +   28 ...   29 +   30 ...   31
                            +   32 ...   33 +   34 ...   35 +   36 ...   37 +   38 ...   39
                            +   40 ...   41 +   42 ...   43 +   44 ...   45 +   46 ...   47
                            +   48 ...   49 +   50 ...   51 +   52 ...   53 +   54 ...   55
                            +   56 ...   57 +   58 ...   59 +   60 ...   61 +   62 ...   63
                            +   64 ...   65 +   66 ...   67 +   68 ...   69 +   70 ...   71
                            +   72 ...   73 +   74 ...   75 +   76 ...   77 +   78 ...   79
                            +   80 ...   81 +   82 ...   83 +   84 ...   85 +   86 ...   87
                            +   88 ...   89 +   90 ...   91 +   92 ...   93 +   94 ...   95
                            +   96 ...   97 +   98 ...   99 +  100 ...  101 +  102 ...  103
                            +  104 ...  105 +  106 ...  107 +  108 ...  109 +  110 ...  111
                            +  112 ...  113 +  114 ...  115 +  116 ...  116
  Reading integrals       ... ok
Time spent in pair loops =   310.115 sec

-----------------------------------------------
 RI-MP2 CORRELATION ENERGY:     -3.533124633 Eh
-----------------------------------------------


-------
TIMINGS
-------

Total time                :  350.863 sec
Integral trafo            :   35.491 sec ( 10.1%)
I/O of integrals          :    0.275 sec (  0.1%)
K(i,j) operators          :    3.974 sec (  1.1%)
T(i,j) pair energies      :    0.412 sec (  0.1%)
V**(-1/2)                 :    5.253 sec (  1.5%)


---------------------------------------
MP2 TOTAL ENERGY:    -1381.114168914 Eh
---------------------------------------

Maximum memory used throughout the entire MP2-calculation: 908.9 MB


-------------------------------------------------------------------------------
                          DFT DISPERSION CORRECTION                            
                                                                               
                                DFTD4 V3.4.0                                   
-------------------------------------------------------------------------------
The REV-DSD-PBEP86-2021 functional is recognized
A user input s6-coefficient scaling factor has been recognized
A user input a1-coefficient scaling factor has been recognized
A user input s8-coefficient scaling factor has been recognized
A user input a2-coefficient scaling factor has been recognized
A user input s9-coefficient scaling factor has been recognized
Active option DFTDOPT                   ...         5   

-------------------------   ----------------
Dispersion correction           -0.060528129
-------------------------   ----------------


-------------------------   --------------------
FINAL SINGLE POINT ENERGY     -1381.174697042586
-------------------------   --------------------



           ************************************************************
           *        Program running with 104 parallel MPI-processes   *
           *              working on a common directory               *
           ************************************************************

------------------------------------------------------------------------------
                              ORCA PROPERTY CALCULATIONS
------------------------------------------------------------------------------

GBWName                                 ... compas3D_hc_c36h18_0pent_42_qz_riri.gbw
Number of atoms                         ...     54
Number of basis functions               ...   2592
Max core memory                         ...   1024 MB

Electric properties:
Dipole moment                           ... YES
Quadrupole moment                       ...  NO
Static polarizability (Dipole/Dipole)   ...  NO
Static polarizability (Dipole/Quad.)    ...  NO
Static polarizability (Quad./Quad.)     ...  NO
Static polarizability (Velocity)        ...  NO

Atomic electric properties:
Dipole moment                           ...  NO
Quadrupole moment                       ...  NO
Static polarizability                   ...  NO

Choice of electric origin               ... Center of mass
Position of electric origin             ...     0.014231     0.187923     0.001350

General magnetic properties:
Magnetizability                         ...  NO

EPR properties:
g-Tensor (aka g-matrix)                 ...  NO
Zero-Field splitting spin-orbit         ...  NO
Zero-field splitting spin-spin          ...  NO
Hyperfine couplings                     ...  NO (   0 nuclei)
Quadrupole couplings                    ...  NO (   0 nuclei)
Contact density                         ...  NO (   0 nuclei)

NMR properties:
Chemical shifts                         ...  NO (   0 nuclei)
Spin-rotation constants                 ...  NO (   0 nuclei)
Spin-spin couplings                     ...  NO (   0 nuclei,    0 pairs)

Choice of magnetic origin               ... GIAO
Position of magnetic origin             ...     0.000000     0.000000     0.000000

Properties with geometric perturbations:
SCF Hessian                             ...  NO
IR spectrum                             ...  NO
VCD spectrum                            ...  NO
X-ray spectroscopy properties:
SCF XES/XAS/RIXS spectra                ...  NO


-------------
DIPOLE MOMENT
-------------

Method             : SCF
Type of density    : Electron Density
Multiplicity       :   1
Irrep              :   0
Energy             : -1377.5810442810825407 Eh
Relativity type    : 
Basis              : AO
                                X                 Y                 Z
Electronic contribution:      0.415737991       5.468470166       0.037763531
Nuclear contribution   :     -0.418514686      -5.499562631      -0.039514848
                        -----------------------------------------
Total Dipole Moment    :     -0.002776695      -0.031092465      -0.001751316
                        -----------------------------------------
Magnitude (a.u.)       :      0.031265293
Magnitude (Debye)      :      0.079470059



--------------------
Rotational spectrum 
--------------------
 
Rotational constants in cm-1:             0.004209             0.004167             0.002094 
Rotational constants in MHz :           126.176607           124.912818            62.773489 

Dipole components along the rotational axes: 
x,y,z [a.u.] :    -0.031221    -0.000559    -0.001577 
x,y,z [Debye]:    -0.079356    -0.001421    -0.004007 

 

Dipole moment calculation done in   0.6 sec 

Maximum memory used throughout the entire PROP-calculation: 410.3 MB

--------------------------------
SUGGESTED CITATIONS FOR THIS RUN
--------------------------------

Below you find a list of papers that are relevant to this ORCA run
We neither can nor want to force you to cite these papers, but we appreciate if you do
You receive ORCA, which is the product of decades of hard work by many enthusiastic individuals, for free
The only thing we kindly ask in return is that you cite our papers,
We deeply appreciate it, if you show your appreciation for ORCA by not just citing the generic ORCA reference.

Please note that relegating all ORCA citations to the supporting information does *not* help us.
SI sections are not indexed - citations you put there will not count into any citation statistics
But we need these citations in order to attract the funding resources that allow us to do what we are doing

Therefore, if you are a happy ORCA user, please consider citing a few of the papers listed below in the main body of your paper

In addition to the list printed below, the program has created the file compas3D_hc_c36h18_0pent_42_qz_riri.bibtex that contains the list in bibtex format
You can import this file easily into all common literature databanks and citation aid programs


List of essential papers. We consider these as the minimum necessary citations

  1. Neese,F.
     Software update: the ORCA program system, version 5.0
     WIRES Comput. Molec. Sci., 2022 12(1)e1606
     doi.org/10.1002/wcms.1606

List of papers to cite with high priority. The work reported in these papers was absolutely
necessary for this run to complete.
Our perspective: the developers of density functionals and basis sets usually get cited in chemistry papers
Good! But without the algorithms to do something with them, the functionals or basis sets would not do anything.
Hence, in our opinion, the algorithm design and method developments papers are equally worthy of getting cited

  1. Neese,F.
     An improvement of the resolution of the identity approximation for the formation of the Coulomb matrix
     J. Comp. Chem., 2003 24(14)1740-1747
     doi.org/10.1002/jcc.10318
  2. Kossmann,S.; Neese,F.
     Comparison of two efficient approximate Hartee-Fock approaches
     Chem. Phys. Lett., 2009 481 240-243
     doi.org/10.1016/j.cplett.2009.09.073
  3. Neese,F.
     The SHARK Integral Generation and Digestion System
     J. Comp. Chem., 2022  1-16
     doi.org/10.1002/jcc.26942
  4. Caldeweyher,E.; Bannwarth,C.; Grimme,S.
     Extension of the D3 dispersion coefficient model
     J. Chem. Phys., 2017 147 034112
     doi.org/10.1063/1.4993215
  5. Caldeweyher,E.; Ehlert,S.; Hansen,A.; Neugebauer,H.; Spicher,S.; Bannwarth,C.; Grimme,S.
     A generally applicable atomic-charge dependent London dispersion correction
     J. Chem. Phys., 2019 150 154122
     doi.org/10.1063/1.5090222
  6. Caldeweyher,E.; Mewes,J.; Ehlert,S.; Grimme,S.
     Extension and evaluation of the D4 London-dispersion model for periodic systems
     Phys. Chem. Chem. Phys., 2020 22(16)8499-8512
     doi.org/10.1039/D0CP00502A
  7. Wittmann,L.; Gordiy,I.; Friede,M.; Helmich-Paris,B.; Grimme,S.; Hansen,A.; Bursch,M.
     Extension of the D3 and D4 London Dispersion Corrections to the full Actinides Series
     Phys. Chem. Chem. Phys., 2024 26(32)21379-21394
     doi.org/https://doi.org/10.1039/D4CP01514B 

List of suggested additional citations. These are papers that are important in the 'surrounding' of 
of this run, or papers that preceded the highly important papers. If you like your results we are grateful for a citation.

  1. Neese,F.
     The ORCA program system
     WIRES Comput. Molec. Sci., 2012 2(1)73-78
     doi.org/10.1002/wcms.81
  2. Neese,F.
     Software update: the ORCA program system, version 4.0
     WIRES Comput. Molec. Sci., 2018 8(1)1-6
     doi.org/10.1002/wcms.1327
  3. Neese,F.; Wennmohs,F.; Becker,U.; Riplinger,C.
     The ORCA quantum chemistry program package
     J. Chem. Phys., 2020 152 Art. No. L224108
     doi.org/10.1063/5.0004608

List of optional additional citations

  1. Neese,F.
     Approximate second-order SCF convergence for spin unrestricted wavefunctions
     Chem. Phys. Lett., 2000 325(1-3)93-98
     doi.org/10.1016/s0009-2614(00)00662-x

Timings for individual modules:

Sum of individual times          ...     1246.826 sec (=  20.780 min)
Startup calculation              ...       33.633 sec (=   0.561 min)   2.7 %
SCF iterations                   ...      823.028 sec (=  13.717 min)  66.0 %
Property calculations            ...       18.497 sec (=   0.308 min)   1.5 %
MP2 module                       ...      371.668 sec (=   6.194 min)  29.8 %
                             ****ORCA TERMINATED NORMALLY****
TOTAL RUN TIME: 0 days 0 hours 21 minutes 17 seconds 507 msec
