
                                 *****************
                                 * O   R   C   A *
                                 *****************

                                            #,                                       
                                            ###                                      
                                            ####                                     
                                            #####                                    
                                            ######                                   
                                           ########,                                 
                                     ,,################,,,,,                         
                               ,,#################################,,                 
                          ,,##########################################,,             
                       ,#########################################, ''#####,          
                    ,#############################################,,   '####,        
                  ,##################################################,,,,####,       
                ,###########''''           ''''###############################       
              ,#####''   ,,,,##########,,,,          '''####'''          '####       
            ,##' ,,,,###########################,,,                        '##       
           ' ,,###''''                  '''############,,,                           
         ,,##''                                '''############,,,,        ,,,,,,###''
      ,#''                                            '''#######################'''  
     '                                                          ''''####''''         
             ,#######,   #######,   ,#######,      ##                                
            ,#'     '#,  ##    ##  ,#'     '#,    #''#        ,####,   ,####,        
            ##       ##  ##   ,#'  ##            #'  '#       #'       #'  '#        
            ##       ##  #######   ##           ,######,      #####,   #    #        
            '#,     ,#'  ##    ##  '#,     ,#' ,#      #,     #,   #   #,  ,#        
             '#######'   ##     ##  '#######'  #'      '#     '####' # '####'        



                #########################################################
                #                        -***-                          #
                #          Department of theory and spectroscopy        #
                #                                                       #
                #                      Frank Neese                      #
                #                                                       #
                #     Directorship, Architecture, Infrastructure        #
                #                    SHARK, DRIVERS                     #
                #        Core code/Algorithms in most modules           #
                #                                                       #
                #        Max Planck Institute fuer Kohlenforschung      #
                #                Kaiser Wilhelm Platz 1                 #
                #                 D-45470 Muelheim/Ruhr                 #
                #                      Germany                          #
                #                                                       #
                #                  All rights reserved                  #
                #                        -***-                          #
                #########################################################


                         Program Version 6.0.1  -  RELEASE   -


 With contributions from (in alphabetic order):
[Max-Planck-Institut fuer Kohlenforschung]                               
  Daniel Aravena         : Magnetic Suceptibility                        
  Michael Atanasov       : Ab Initio Ligand Field Theory (pilot matlab implementation)
  Alexander A. Auer      : GIAO ZORA, VPT2 properties, NMR spectrum      
  Ute Becker             : All parallelization in ORCA, NUMFREQ, NUMCALC 
  Giovanni Bistoni       : ED, misc. LED, open-shell LED, HFLD           
  Martin Brehm           : Molecular dynamics                            
  Dmytro Bykov           : pre 5.0 version of the SCF Hessian            
  Marcos Casanova-Páez   : Triplet and SCS-CIS(D). UHF-(DLPNO)-IP/EA/STEOM-CCSD. UHF-CVS-IP/STEOM-CCSD   
  Vijay G. Chilkuri      : MRCI spin determinant printing, contributions to CSF-ICE 
  Pauline Colinet        : FMM embedding                                 
  Dipayan Datta          : RHF DLPNO-CCSD density                        
  Achintya Kumar Dutta   : EOM-CC, STEOM-CC                              
  Nicolas Foglia         : Exact transition moments, OPA infrastructure, MCD improvements    
  Dmitry Ganyushin       : Spin-Orbit,Spin-Spin,Magnetic field MRCI      
  Miquel Garcia-Rates    : C-PCM and meta-GGA Hessian, CCSD/C-PCM, Gaussian charge scheme 
  Tiago L. C. Gouveia    : GS-ROHF, GS-ROCIS                             
  Yang Guo               : DLPNO-NEVPT2, F12-NEVPT2, CIM, IAO-localization        
  Andreas Hansen         : Spin unrestricted coupled pair/coupled cluster methods 
  Ingolf Harden          : AUTO-CI MPn and infrastructure                
  Benjamin Helmich-Paris : MC-RPA, TRAH-(SCF,CASSCF), AVAS, COSX integrals, SCF dyn. polar. 
  Lee Huntington         : MR-EOM, pCC                                   
  Robert Izsak           : Overlap fitted RIJCOSX, COSX-SCS-MP3, EOM     
  Riya Kayal             : Wick's Theorem for AUTO-CI, AUTO-CI UHF-CCSDT 
  Emily Kempfer          : AUTO-CI, RHF CISDT and CCSDT                  
  Christian Kollmar      : KDIIS, OOCD, Brueckner-CCSD(T), CCSD density, CASPT2, CASPT2-K, improved NEVPT2 
  Axel Koslowski         : Symmetry handling                             
  Simone Kossmann        : meta-GGA functionals, TD-DFT gradient, OOMP2, (MP2 Hessian; deprecated post 5.0) 
  Lucas Lang             : DCDCAS                                        
  Marvin Lechner         : AUTO-CI (C++ implementation), FIC-MRCC        
  Spencer Leger          : CASSCF response                               
  Dagmar Lenk            : GEPOL surface, SMD, ORCA-2-JSON               
  Dimitrios Liakos       : Extrapolation schemes; Compound Job, initial MDCI parallelization 
  Dimitrios Manganas     : Further ROCIS development; embedding schemes. LFT, Crystal Embedding 
  Dimitrios Pantazis     : SARC Basis sets                               
  Anastasios Papadopoulos: AUTO-CI, single reference methods and gradients 
  Taras Petrenko         : pre 6.0 DFT Hessian and TD-DFT gradient, (ASA, deprecated), ECA, 1-Electron XAS/XES, NRVS 
  Peter Pinski           : DLPNO-MP2, DLPNO-MP2 Gradient                 
  Christoph Reimann      : Effective Core Potentials                     
  Marius Retegan         : Local ZFS, SOC                                
  Christoph Riplinger    : Optimizer, TS searches, QM/MM, DLPNO-CCSD(T), (RO)-DLPNO pert. Triples 
  Michael Roemelt        : Original ROCIS implementation                 
  Masaaki Saitow         : Open-shell DLPNO-CCSD energy and density      
  Barbara Sandhoefer     : DKH picture change effects                    
  Kantharuban Sivalingam : CASSCF convergence/infrastructure, NEVPT2 and variants, FIC-MRCI 
  Bernardo de Souza      : ESD, SOC TD-DFT                               
  Georgi L. Stoychev     : AutoAux, RI-MP2 NMR, DLPNO-MP2 response, X2C  
  Van Anh Tran           : RI-MP2 g-tensors                              
  Willem Van den Heuvel  : Paramagnetic NMR                              
  Zikuan Wang            : NOTCH, Electric field optimization            
  Frank Wennmohs         : Technical directorship and infrastructure     
  Hang Xu                : AUTO-CI-Response properties                   
                                                                         
[FACCTs GmbH]                                                            
  Markus Bursch, Miquel Garcia-Rates, Christoph Riplinger, Bernardo de Souza, Georgi L. Stoychev 
                                                                 
  APM, Basis sets (HGBS, AHGBS, def-TZVP (Ac-Lr), def2-XVPD (La-Lu)), CI-OPT, improved COSX, DLPNO-Multilevel,           
  DOCKER, DRACO, updates on ESD, GOAT, IRC, LR-CPCM, MBIS, meta-GGA TD-DFT gradient, ML-optimized integration grids, 
  MM, NACMEs, nearIR, NEB, NEB-TS, NL-DFT gradient (VV10), 2- and 3-layer-ONIOM, interface openCOSMO-RS, QMMM,   
  Crystal-QMMM, SF, symmetry and pop. for TD-DFT, r2SCAN hybrids, SOLVATOR                                   
                                                                         
[Other institutions]                                                     
  V. Asgeirsson          : NEB                                           
  Christoph Bannwarth    : sTDA-DFT, sTD-DFT, PBEh-3c, B97-3c, D3        
  Sebastian Ehlert       : rSCAN, r2SCAN, r2SCAN-3c, D4, dhf basis sets  
  Marvin Friede          : D4 for Fr, Ra, Ac-Lr                          
  Lars Goerigk           : TD-DFT with DH, B97 family of functionals     
  Stefan Grimme          : VdW corrections, initial TS optimization, DFT functionals, gCP, sTDA/sTD-DF 
  Waldemar Hujo          : DFT-NL                                        
  H. Jonsson             : NEB                                           
  Holger Kruse           : gCP                                           
  Marcel Mueller         : wB97X-3c, vDZP basis set                      
  Hagen Neugebauer       : wr2SCAN                                       
  Tobias Risthaus        : range-separated hybrid DFT                    
  Lukas Wittmann         : regularized MP2, r2SCAN double-hybrids, wr2SCAN        
                                                                         
We gratefully acknowledge several colleagues who have allowed us to      
interface, adapt or use parts of their codes:                            
  Ed Valeev, F. Pavosevic, A. Kumar             : LibInt (2-el integral package), F12 methods 
  Garnet Chan, S. Sharma, J. Yang, R. Olivares  : DMRG                   
  Ulf Ekstrom                                   : XCFun DFT Library      
  Mihaly Kallay                                 : mrcc  (arbitrary order and MRCC methods)
  Frank Weinhold                                : gennbo (NPA and NBO analysis)           
  Simon Mueller                                 : openCOSMO-RS                            
  Christopher J. Cramer and Donald G. Truhlar   : smd solvation model                     
  S Lehtola, MJT Oliveira, MAL Marques          : LibXC Library                           
  Liviu Ungur et al                             : ANISO software                          


 Your calculation uses the libint2 library for the computation of 2-el integrals
 For citations please refer to: http://libint.valeyev.net

 Your ORCA version has been built with support for libXC version: 6.2.2
 For citations please refer to: https://libxc.gitlab.io

 This ORCA versions uses:
   CBLAS   interface :  Fast vector & matrix operations
   LAPACKE interface :  Fast linear algebra routines
   SCALAPACK package :  Parallel linear algebra routines
   Shared memory     :  Shared parallel matrices
   BLAS/LAPACK       :  OpenBLAS 0.3.27  USE64BITINT DYNAMIC_ARCH NO_AFFINITY SapphireRapids SINGLE_THREADED
        Core in use  :  SapphireRapids
   Copyright (c) 2011-2014, The OpenBLAS Project




***************************************
The coordinates will be read from file: /scratch/kx58/rs2200/dhdft/inputs/compas3D-xyzs/hc_c24h14_0pent_5.xyz
***************************************


Your calculation utilizes the atom-pairwise dispersion correction
based on EEQ partial charges (D4)


================================================================================

----- Orbital basis set information -----
Your calculation utilizes the basis: def2-TZVP
   F. Weigend and R. Ahlrichs, Phys. Chem. Chem. Phys. 7, 3297 (2005).

----- AuxC basis set information -----
Your calculation utilizes the auxiliary basis: def2-TZVP/C
  H-La, Hf-Rn : A. Hellweg, C. Hattig, S. Hofener and W. Klopper, Theor. Chem. Acc. 117, 587 (2007).
        Ce-Lu : J. Chmela and M. E. Harding, Mol. Phys. (2018).

----- AuxJK basis set information -----
Your calculation utilizes the auxiliary basis: def2/JK
   H-Ba, Hf-Rn: F. Weigend, J. Comput. Chem. 29, 167 (2008).

================================================================================
                                        WARNINGS
                       Please study these warnings very carefully!
================================================================================


WARNING: No MP2 level density has been requested!
         To calculate MP2 level properties use
         %mp2 Density relaxed end
         or
         %mp2 Density unrelaxed end
         Otherwise for double-hybrid DFT only the energy is correct!

================================================================================
                                       INPUT FILE
================================================================================
NAME = compas3D_hc_c24h14_0pent_5_tz_rijk.inp
|  1> ! RKS revDSD-PBEP86-D4/2021 defgrid3  RIJK NOPOP NoFrozencore NoUseSym
|  2> 
|  3> %basis
|  4> Basis "def2-TZVP"
|  5> AuxJK "def2/JK"
|  6> AuxC "def2-TZVP/C"
|  7> end
|  8> 
|  9> %method
| 10> ScalHFX 0.69
| 11> ScalDFX 0.31
| 12> ScalDFC 0.4038
| 13> ScalLDAC 0.4038
| 14> 
| 15> D4S6 0.4612
| 16> D4S8 0.0
| 17> D4A1 0.44
| 18> D4A2 3.60
| 19> end
| 20> 
| 21> %mp2
| 22> PS 0.5979
| 23> PT 0.0571
| 24> end
| 25> 
| 26> %pal
| 27> nprocs 104
| 28> end
| 29> 
| 30> *XYZFILE 0 1 /scratch/kx58/rs2200/dhdft/inputs/compas3D-xyzs/hc_c24h14_0pent_5.xyz
| 31> 
| 32>                          ****END OF INPUT****
================================================================================

                       ****************************
                       * Single Point Calculation *
                       ****************************

---------------------------------
CARTESIAN COORDINATES (ANGSTROEM)
---------------------------------
  C      0.241919    0.119380   -0.180296
  C     -0.961417    0.862358   -0.304771
  C     -0.931703    2.253981   -0.640591
  C      0.301928    2.895367   -0.922076
  C      1.487883    2.093685   -0.924907
  C      1.457270    0.781377   -0.580404
  C      0.189797   -1.249612    0.241636
  C     -1.078533   -1.887885    0.258898
  C     -2.256369   -1.139267    0.098843
  C     -2.226871    0.225001   -0.117072
  C     -3.434171    1.009963   -0.203720
  C     -3.392910    2.333618   -0.468362
  C     -2.139270    3.006452   -0.706125
  C     -2.081371    4.367365   -1.009306
  C     -0.861795    4.992388   -1.266150
  C      0.316846    4.264178   -1.232302
  C      1.348227   -2.038055    0.657085
  C      1.223480   -3.450835    0.759949
  C     -0.061411   -4.069163    0.593778
  C     -1.167874   -3.314038    0.419354
  C      2.579242   -1.473408    1.069632
  C      3.653457   -2.257420    1.436792
  C      3.550783   -3.656415    1.422804
  C      2.342411   -4.236148    1.107560
  H      2.427361    2.553349   -1.240012
  H      2.370963    0.200076   -0.664367
  H     -3.218442   -1.653252    0.161267
  H     -4.388458    0.503009   -0.044758
  H     -4.312860    2.919928   -0.523082
  H     -3.009960    4.941146   -1.049537
  H     -0.837750    6.058027   -1.502573
  H      1.271495    4.747976   -1.450501
  H     -0.131333   -5.155977    0.675332
  H     -2.156474   -3.775154    0.367889
  H      2.674794   -0.394293    1.152924
  H      4.581833   -1.781473    1.758910
  H      4.406706   -4.275070    1.699246
  H      2.222576   -5.321159    1.151015

----------------------------
CARTESIAN COORDINATES (A.U.)
----------------------------
  NO LB      ZA    FRAG     MASS         X           Y           Z
   0 C     6.0000    0    12.011    0.457160    0.225596   -0.340711
   1 C     6.0000    0    12.011   -1.816814    1.629621   -0.575933
   2 C     6.0000    0    12.011   -1.760663    4.259407   -1.210542
   3 C     6.0000    0    12.011    0.570562    5.471451   -1.742471
   4 C     6.0000    0    12.011    2.811692    3.956492   -1.747820
   5 C     6.0000    0    12.011    2.753841    1.476588   -1.096805
   6 C     6.0000    0    12.011    0.358664   -2.361424    0.456626
   7 C     6.0000    0    12.011   -2.038132   -3.567586    0.489246
   8 C     6.0000    0    12.011   -4.263920   -2.152903    0.186786
   9 C     6.0000    0    12.011   -4.208175    0.425190   -0.221234
  10 C     6.0000    0    12.011   -6.489642    1.908554   -0.384975
  11 C     6.0000    0    12.011   -6.411671    4.409899   -0.885077
  12 C     6.0000    0    12.011   -4.042634    5.681371   -1.334384
  13 C     6.0000    0    12.011   -3.933221    8.253123   -1.907313
  14 C     6.0000    0    12.011   -1.628557    9.434245   -2.392677
  15 C     6.0000    0    12.011    0.598752    8.058128   -2.328714
  16 C     6.0000    0    12.011    2.547780   -3.851366    1.241710
  17 C     6.0000    0    12.011    2.312041   -6.521132    1.436095
  18 C     6.0000    0    12.011   -0.116049   -7.689604    1.122077
  19 C     6.0000    0    12.011   -2.206962   -6.262624    0.792465
  20 C     6.0000    0    12.011    4.874061   -2.784337    2.021312
  21 C     6.0000    0    12.011    6.904033   -4.265906    2.715143
  22 C     6.0000    0    12.011    6.710007   -6.909624    2.688710
  23 C     6.0000    0    12.011    4.426516   -8.005159    2.092985
  24 H     1.0000    0     1.008    4.587047    4.825130   -2.343284
  25 H     1.0000    0     1.008    4.480472    0.378089   -1.255471
  26 H     1.0000    0     1.008   -6.081974   -3.124194    0.304750
  27 H     1.0000    0     1.008   -8.292984    0.950549   -0.084581
  28 H     1.0000    0     1.008   -8.150124    5.517863   -0.988481
  29 H     1.0000    0     1.008   -5.688001    9.337414   -1.983338
  30 H     1.0000    0     1.008   -1.583119   11.448012   -2.839452
  31 H     1.0000    0     1.008    2.402777    8.972374   -2.741050
  32 H     1.0000    0     1.008   -0.248184   -9.743384    1.276193
  33 H     1.0000    0     1.008   -4.075145   -7.134006    0.695210
  34 H     1.0000    0     1.008    5.054628   -0.745107    2.178710
  35 H     1.0000    0     1.008    8.658409   -3.366496    3.323859
  36 H     1.0000    0     1.008    8.327468   -8.078712    3.211110
  37 H     1.0000    0     1.008    4.200061  -10.055533    2.175104

--------------------------------
INTERNAL COORDINATES (ANGSTROEM)
--------------------------------
 C      0   0   0     0.000000000000     0.00000000     0.00000000
 C      1   0   0     1.419692380078     0.00000000     0.00000000
 C      2   1   0     1.431876922501   120.77037840     0.00000000
 C      3   2   1     1.418610821834   120.26463028     3.26576059
 C      4   3   2     1.431499616167   117.88071670     3.12713910
 C      5   4   3     1.357119465652   121.48984583   355.51925356
 C      1   2   3     1.433486337730   119.65521801   175.95134915
 C      7   1   2     1.419982931756   117.73130114    12.48589966
 C      8   7   1     1.404757952253   120.52986506   348.97992184
 C      9   8   7     1.381563573741   121.74559988     1.85307848
 C     10   9   8     1.442652807628   121.92555019   183.70725163
 C     11  10   9     1.350481598775   121.29895012   182.68589939
 C      3   2   1     1.424333517539   120.44045216   182.76718081
 C     13   3   2     1.395476154750   119.34270046   178.72434113
 C     14  13   3     1.394269611443   120.89663658     0.90185644
 C     15  14  13     1.385867932127   120.25589079     0.42531724
 C      7   1   2     1.461574976936   124.75187556   192.53119963
 C     17   7   1     1.422001927750   119.14222586   194.19593104
 C     18  17   7     1.435578553862   119.87233759   353.49725461
 C     19  18  17     1.350887825602   120.48218267   356.03722818
 C     17   7   1     1.415774907571   123.83745923    19.29185012
 C     21  17   7     1.379644812140   121.86454134   180.88647860
 C     22  21  17     1.402827744460   120.46936739   359.42352043
 C     23  22  21     1.376818752132   119.10657475   356.52415013
 H      5   4   3     1.092336744252   118.51845314   173.81000472
 H      6   5   4     1.086183955606   118.61408676   175.84529276
 H      9   8   7     1.092547843442   118.75805732   182.69094230
 H     11  10   9     1.092215932572   118.02704538     2.92156471
 H     12  11  10     1.092272583927   120.67723821   180.53539059
 H     14  13   3     1.092301401123   119.01348540   180.53143451
 H     15  14  13     1.091815579142   119.78095486   179.93408302
 H     16  15  14     1.092256959738   120.37808478   178.91654824
 H     19  18  17     1.092110047952   118.50849349   179.88004699
 H     20  19  18     1.092065052440   120.76523521   184.64364214
 H     21  17   7     1.086533542151   119.66351685     4.16982532
 H     22  21  17     1.091864561797   119.52694164   180.64423010
 H     23  22  21     1.091677218432   120.34750369   179.07516660
 H     24  23  22     1.092473036598   120.35486276   183.81955320

---------------------------
INTERNAL COORDINATES (A.U.)
---------------------------
 C      0   0   0     0.000000000000     0.00000000     0.00000000
 C      1   0   0     2.682829792761     0.00000000     0.00000000
 C      2   1   0     2.705855241009   120.77037840     0.00000000
 C      3   2   1     2.680785943884   120.26463028     3.26576059
 C      4   3   2     2.705142235368   117.88071670     3.12713910
 C      5   4   3     2.564584121096   121.48984583   355.51925356
 C      1   2   3     2.708896595027   119.65521801   175.95134915
 C      7   1   2     2.683378855861   117.73130114    12.48589966
 C      8   7   1     2.654607814206   120.52986506   348.97992184
 C      9   8   7     2.610776790972   121.74559988     1.85307848
 C     10   9   8     2.726218712750   121.92555019   183.70725163
 C     11  10   9     2.552040370584   121.29895012   182.68589939
 C      3   2   1     2.691600271513   120.44045216   182.76718081
 C     13   3   2     2.637067758894   119.34270046   178.72434113
 C     14  13   3     2.634787722475   120.89663658     0.90185644
 C     15  14  13     2.618910849504   120.25589079     0.42531724
 C      7   1   2     2.761976430601   124.75187556   192.53119963
 C     17   7   1     2.687194205356   119.14222586   194.19593104
 C     18  17   7     2.712850310531   119.87233759   353.49725461
 C     19  18  17     2.552808028037   120.48218267   356.03722818
 C     17   7   1     2.675426842587   123.83745923    19.29185012
 C     21  17   7     2.607150857029   121.86454134   180.88647860
 C     22  21  17     2.650960250095   120.46936739   359.42352043
 C     23  22  21     2.601810377578   119.10657475   356.52415013
 H      5   4   3     2.064217292656   118.51845314   173.81000472
 H      6   5   4     2.052590207155   118.61408676   175.84529276
 H      9   8   7     2.064616212312   118.75805732   182.69094230
 H     11  10   9     2.063988991666   118.02704538     2.92156471
 H     12  11  10     2.064096047212   120.67723821   180.53539059
 H     14  13   3     2.064150503820   119.01348540   180.53143451
 H     15  14  13     2.063232433327   119.78095486   179.93408302
 H     16  15  14     2.064066521774   120.37808478   178.91654824
 H     19  18  17     2.063788898734   118.50849349   179.88004699
 H     20  19  18     2.063703869539   120.76523521   184.64364214
 H     21  17   7     2.053250829986   119.66351685     4.16982532
 H     22  21  17     2.063324997131   119.52694164   180.64423010
 H     23  22  21     2.062970969477   120.34750369   179.07516660
 H     24  23  22     2.064474847863   120.35486276   183.81955320

---------------------
BASIS SET INFORMATION
---------------------
There are 2 groups of distinct atoms

 Group   1 Type C   : 11s6p2d1f contracted to 5s3p2d1f pattern {62111/411/11/1}
 Group   2 Type H   : 5s1p contracted to 3s1p pattern {311/1}

Atom   0C    basis set group =>   1
Atom   1C    basis set group =>   1
Atom   2C    basis set group =>   1
Atom   3C    basis set group =>   1
Atom   4C    basis set group =>   1
Atom   5C    basis set group =>   1
Atom   6C    basis set group =>   1
Atom   7C    basis set group =>   1
Atom   8C    basis set group =>   1
Atom   9C    basis set group =>   1
Atom  10C    basis set group =>   1
Atom  11C    basis set group =>   1
Atom  12C    basis set group =>   1
Atom  13C    basis set group =>   1
Atom  14C    basis set group =>   1
Atom  15C    basis set group =>   1
Atom  16C    basis set group =>   1
Atom  17C    basis set group =>   1
Atom  18C    basis set group =>   1
Atom  19C    basis set group =>   1
Atom  20C    basis set group =>   1
Atom  21C    basis set group =>   1
Atom  22C    basis set group =>   1
Atom  23C    basis set group =>   1
Atom  24H    basis set group =>   2
Atom  25H    basis set group =>   2
Atom  26H    basis set group =>   2
Atom  27H    basis set group =>   2
Atom  28H    basis set group =>   2
Atom  29H    basis set group =>   2
Atom  30H    basis set group =>   2
Atom  31H    basis set group =>   2
Atom  32H    basis set group =>   2
Atom  33H    basis set group =>   2
Atom  34H    basis set group =>   2
Atom  35H    basis set group =>   2
Atom  36H    basis set group =>   2
Atom  37H    basis set group =>   2
---------------------------------
AUXILIARY/C BASIS SET INFORMATION
---------------------------------
There are 2 groups of distinct atoms

 Group   1 Type C   : 8s6p5d3f1g contracted to 8s6p4d3f1g pattern {11111111/111111/2111/111/1}
 Group   2 Type H   : 4s3p2d contracted to 4s2p1d pattern {1111/21/2}

Atom   0C    basis set group =>   1
Atom   1C    basis set group =>   1
Atom   2C    basis set group =>   1
Atom   3C    basis set group =>   1
Atom   4C    basis set group =>   1
Atom   5C    basis set group =>   1
Atom   6C    basis set group =>   1
Atom   7C    basis set group =>   1
Atom   8C    basis set group =>   1
Atom   9C    basis set group =>   1
Atom  10C    basis set group =>   1
Atom  11C    basis set group =>   1
Atom  12C    basis set group =>   1
Atom  13C    basis set group =>   1
Atom  14C    basis set group =>   1
Atom  15C    basis set group =>   1
Atom  16C    basis set group =>   1
Atom  17C    basis set group =>   1
Atom  18C    basis set group =>   1
Atom  19C    basis set group =>   1
Atom  20C    basis set group =>   1
Atom  21C    basis set group =>   1
Atom  22C    basis set group =>   1
Atom  23C    basis set group =>   1
Atom  24H    basis set group =>   2
Atom  25H    basis set group =>   2
Atom  26H    basis set group =>   2
Atom  27H    basis set group =>   2
Atom  28H    basis set group =>   2
Atom  29H    basis set group =>   2
Atom  30H    basis set group =>   2
Atom  31H    basis set group =>   2
Atom  32H    basis set group =>   2
Atom  33H    basis set group =>   2
Atom  34H    basis set group =>   2
Atom  35H    basis set group =>   2
Atom  36H    basis set group =>   2
Atom  37H    basis set group =>   2
----------------------------------
AUXILIARY/JK BASIS SET INFORMATION
----------------------------------
There are 2 groups of distinct atoms

 Group   1 Type C   : 14s10p6d2f1g contracted to 10s8p5d1f1g pattern {5111111111/31111111/21111/2/1}
 Group   2 Type H   : 4s2p2d contracted to 2s2p2d pattern {31/11/11}

Atom   0C    basis set group =>   1
Atom   1C    basis set group =>   1
Atom   2C    basis set group =>   1
Atom   3C    basis set group =>   1
Atom   4C    basis set group =>   1
Atom   5C    basis set group =>   1
Atom   6C    basis set group =>   1
Atom   7C    basis set group =>   1
Atom   8C    basis set group =>   1
Atom   9C    basis set group =>   1
Atom  10C    basis set group =>   1
Atom  11C    basis set group =>   1
Atom  12C    basis set group =>   1
Atom  13C    basis set group =>   1
Atom  14C    basis set group =>   1
Atom  15C    basis set group =>   1
Atom  16C    basis set group =>   1
Atom  17C    basis set group =>   1
Atom  18C    basis set group =>   1
Atom  19C    basis set group =>   1
Atom  20C    basis set group =>   1
Atom  21C    basis set group =>   1
Atom  22C    basis set group =>   1
Atom  23C    basis set group =>   1
Atom  24H    basis set group =>   2
Atom  25H    basis set group =>   2
Atom  26H    basis set group =>   2
Atom  27H    basis set group =>   2
Atom  28H    basis set group =>   2
Atom  29H    basis set group =>   2
Atom  30H    basis set group =>   2
Atom  31H    basis set group =>   2
Atom  32H    basis set group =>   2
Atom  33H    basis set group =>   2
Atom  34H    basis set group =>   2
Atom  35H    basis set group =>   2
Atom  36H    basis set group =>   2
Atom  37H    basis set group =>   2


           ************************************************************
           *        Program running with 104 parallel MPI-processes   *
           *              working on a common directory               *
           ************************************************************
------------------------------------------------------------------------------
                             ORCA STARTUP CALCULATIONS
                           -- RI-GTO INTEGRALS CHOSEN --
------------------------------------------------------------------------------
------------------------------------------------------------------------------
                   ___                                                        
                  /   \      - P O W E R E D   B Y -                         
                 /     \                                                     
                 |  |  |   _    _      __       _____    __    __             
                 |  |  |  | |  | |    /  \     |  _  \  |  |  /  |          
                  \  \/   | |  | |   /    \    | | | |  |  | /  /          
                 / \  \   | |__| |  /  /\  \   | |_| |  |  |/  /          
                |  |  |   |  __  | /  /__\  \  |    /   |      \           
                |  |  |   | |  | | |   __   |  |    \   |  |\   \          
                \     /   | |  | | |  |  |  |  | |\  \  |  | \   \       
                 \___/    |_|  |_| |__|  |__|  |_| \__\ |__|  \__/        
                                                                              
                      - O R C A' S   B I G   F R I E N D -                    
                                      &                                       
                       - I N T E G R A L  F E E D E R -                       
                                                                              
 v1 FN, 2020, v2 2021, v3 2022-2024                                           
------------------------------------------------------------------------------


----------------------
SHARK INTEGRAL PACKAGE
----------------------

Number of atoms                             ...     38
Number of basis functions                   ...    828
Number of shells                            ...    320
Maximum angular momentum                    ...      3
Integral batch strategy                     ... SHARK/LIBINT Hybrid
RI-J (if used) integral strategy            ... SPLIT-RIJ (Revised 2003 algorithm where possible)
Printlevel                                  ...      1
Contraction scheme used                     ... SEGMENTED contraction
Prescreening option                         ... SCHWARTZ
   Thresh                                   ... 1.000e-10
   Tcut                                     ... 1.000e-11
   Tpresel                                  ... 1.000e-11 
Coulomb Range Separation                    ... NOT USED
Exchange Range Separation                   ... NOT USED
Multipole approximations                    ... NOT USED
Finite Nucleus Model                        ... NOT USED
CABS basis                                  ... NOT available
Auxiliary Coulomb fitting basis             ... NOT available
Auxiliary J/K fitting basis                 ... AVAILABLE
   # of basis functions in Aux-JK           ...   2052
   # of shells in Aux-JK                    ...    684
   Maximum angular momentum in Aux-JK       ...      4
Auxiliary Correlation fitting basis         ... AVAILABLE
   # of basis functions in Aux-C            ...   2034
   # of shells in Aux-C                     ...    626
   Maximum angular momentum in Aux-C        ...      4
Auxiliary 'external' fitting basis          ... NOT available

Checking pre-screening integrals            ... done (  0.0 sec) Dimension = 320
Check shell pair data                       ... done (  0.0 sec)
Shell pair information
Shell pair cut-off parameter TPreSel        ...   1.0e-11
Total number of shell pairs                 ...     51360
Shell pairs after pre-screening             ...     36071
Total number of primitive shell pairs       ...    159900
Primitive shell pairs kept                  ...     74787
          la=0 lb=0:   8705 shell pairs
          la=1 lb=0:  10220 shell pairs
          la=1 lb=1:   2972 shell pairs
          la=2 lb=0:   5305 shell pairs
          la=2 lb=1:   3113 shell pairs
          la=2 lb=2:    837 shell pairs
          la=3 lb=0:   2470 shell pairs
          la=3 lb=1:   1482 shell pairs
          la=3 lb=2:    772 shell pairs
          la=3 lb=3:    195 shell pairs

Calculating one electron integrals          ... done (  0.1 sec)
Calculating RI/JK V-Matrix + Cholesky decomp... done (  0.6 sec)
Calculating RI/C V-Matrix + Cholesky decomp.... done (  0.4 sec)
Calculating Nuclear repulsion               ... done (  0.0 sec) ENN=   1794.764723597231 Eh

Diagonalization of the overlap matrix:
Smallest eigenvalue                        ... 3.440e-06
Time for diagonalization                   ...    0.119 sec
Threshold for overlap eigenvalues          ... 1.000e-07
Number of eigenvalues below threshold      ... 0
Time for construction of square roots      ...    0.051 sec
Total time needed                          ...    0.200 sec

-------------------
DFT GRID GENERATION
-------------------

General Integration Accuracy     IntAcc      ... 4.959
Radial Grid Type                 RadialGrid  ... OptM3 with GC (2021)
Angular Grid (max. ang.)         AngularGrid ... 6 (Lebedev-590)
Angular grid pruning method      GridPruning ... 4 (adaptive)
Weight generation scheme         WeightScheme... mBecke (2022)
Basis function cutoff            BFCut       ... 1.0000e-10
Integration weight cutoff        WCut        ... 1.0000e-14
Partially contracted basis set               ... off
Rotationally invariant grid construction     ... off
Angular grids for H and He will be reduced by one unit

Total number of grid points                  ...   457887
Total number of batches                      ...     7176
Average number of points per batch           ...       63
Average number of grid points per atom       ...    12050
Initializing property integral containers    ... done (  0.0 sec)

SHARK setup successfully completed in   6.0 seconds

Maximum memory used throughout the entire STARTUP-calculation: 118.6 MB


           ************************************************************
           *        Program running with 104 parallel MPI-processes   *
           *              working on a common directory               *
           ************************************************************
-------------------------------------------------------------------------------
                                 ORCA GUESS
                   Start orbitals & Density for SCF / CASSCF
-------------------------------------------------------------------------------

------------
SCF SETTINGS
------------
Hamiltonian:
 Density Functional     Method          .... DFT(GTOs)
 Exchange Functional    Exchange        .... PBE
   PBE kappa parameter   XKappa         ....  0.804000
   PBE mue parameter    XMuePBE         ....  0.219520
 Correlation Functional Correlation     .... P86
 LDA part of GGA corr.  LDAOpt          .... VWN-5
 Gradients option       PostSCFGGA      .... off
 Hybrid DFT is turned on
   Fraction HF Exchange ScalHFX         ....  0.690000
   Scaling of DF-GGA-X  ScalDFX         ....  0.310000
   Scaling of DF-GGA-C  ScalDFC         ....  0.403800
   Scaling of DF-LDA-C  ScalLDAC        ....  0.403800
   Perturbative correction              ....  1.000000
 RI-approximation to the Coulomb term is turned on
   Number of AuxJK basis functions      .... 2052
   RI-JK (J+K treated both via RI)      .... on


General Settings:
 Integral files         IntName         .... compas3D_hc_c24h14_0pent_5_tz_rijk
 Hartree-Fock type      HFTyp           .... RHF
 Total Charge           Charge          ....    0
 Multiplicity           Mult            ....    1
 Number of Electrons    NEL             ....  158
 Basis Dimension        Dim             ....  828
 Nuclear Repulsion      ENuc            ....   1794.7647235972 Eh

Convergence Acceleration:
 AO-DIIS                CNVDIIS         .... on
   Start iteration      DIISMaxIt       ....    12
   Startup error        DIISStart       ....  0.200000
   # of expansion vecs  DIISMaxEq       ....     5
   Bias factor          DIISBfac        ....   1.050
   Max. coefficient     DIISMaxC        ....  10.000
 MO-DIIS                CNVKDIIS        .... off
 Trust-Rad. Augm. Hess. CNVTRAH         .... auto
   Auto Start mean grad. ratio tolernc. ....  1.125000
   Auto Start start iteration           ....    50
   Auto Start num. interpolation iter.  ....    10
   Max. Number of Micro iterations      ....    24
   Max. Number of Macro iterations      .... Maxiter - #DIIS iter
   Number of Davidson start vectors     ....     2
   Converg. threshold    (grad. norm)   ....   5.000e-05
   Grad. Scal. Fac. for Micro threshold ....   0.100
   Minimum threshold for Micro iter.    ....   1.000e-02
   NR start threshold (gradient norm)   ....   1.000e-04
   Initial trust radius                 ....   0.400
   Minimum AH scaling param. (alpha)    ....   1.000
   Maximum AH scaling param. (alpha)    .... 1000.000
   Quad. conv. algorithm                .... NR
   White noise on init. David. guess    .... on
   Maximum white noise                  ....   0.010
   Pseudo random numbers                .... off
   Inactive MOs                         .... canonical
   Orbital update algorithm             .... Taylor
   Preconditioner                       .... Diag
   Full preconditioner red. dimension   ....   250
 SOSCF                  CNVSOSCF        .... on
   Start iteration      SOSCFMaxIt      ....   150
   Startup grad/error   SOSCFStart      ....  0.003300
   Hessian update       SOSCFHessUp     .... L-BFGS
 Level Shifting         CNVShift        .... on
   Level shift para.    LevelShift      ....    0.2500
   Turn off err/grad.   ShiftErr        ....    0.0010
 Zerner damping         CNVZerner       .... off
 Static damping         CNVDamp         .... on
   Fraction old density DampFac         ....    0.7000
   Max. Damping (<1)    DampMax         ....    0.9800
   Min. Damping (>=0)   DampMin         ....    0.0000
   Turn off err/grad.   DampErr         ....    0.1000

SCF Procedure:
 Maximum # iterations   MaxIter         ....   125
 SCF integral mode      SCFMode         .... Direct
   Integral package                     .... SHARK and LIBINT hybrid scheme
 Reset frequency        DirectResetFreq ....    20
 Integral Threshold     Thresh          ....  1.000e-10 Eh
 Primitive CutOff       TCut            ....  1.000e-11 Eh

Convergence Tolerance:
 Convergence Check Mode ConvCheckMode   .... Total+1el-Energy
 Convergence forced     ConvForced      .... 0
 Energy Change          TolE            ....  1.000e-06 Eh
 1-El. energy change                    ....  1.000e-03 Eh
 Orbital Gradient       TolG            ....  5.000e-05
 Orbital Rotation angle TolX            ....  5.000e-05
 DIIS Error             TolErr          ....  1.000e-06

------------------------------
INITIAL GUESS: MODEL POTENTIAL
------------------------------
Loading Hartree-Fock densities                     ... done
Calculating cut-offs                               ... done
Initializing the effective Hamiltonian             ... done
Setting up the integral package (SHARK)            ... done
Starting the Coulomb interaction                   ... done (   0.1 sec)
Making the grid                                    ... done (   0.3 sec)
Mapping shells                                     ... done
Starting the XC term evaluation                    ... done (   0.1 sec)
  promolecular density results
     # of electrons  =    158.012632898
     EX              =   -126.956281910
     EC              =      0.208572966
     EX+EC           =   -126.747708944
Transforming the Hamiltonian                       ... done (   0.1 sec)
Diagonalizing the Hamiltonian                      ... done (   0.1 sec)
Back transforming the eigenvectors                 ... done (   0.0 sec)
Now organizing SCF variables                       ... done
                      ------------------
                      INITIAL GUESS DONE (   0.9 sec)
                      ------------------
             **** ENERGY FILE WAS UPDATED (compas3D_hc_c24h14_0pent_5_tz_rijk.en.tmp) ****
Finished Guess after  15.7 sec
Maximum memory used throughout the entire GUESS-calculation: 67.8 MB


           ************************************************************
           *        Program running with 104 parallel MPI-processes   *
           *              working on a common directory               *
           ************************************************************

-------------------------------------------------------------------------------------------
                                      ORCA LEAN-SCF
                              memory conserving SCF solver
-------------------------------------------------------------------------------------------

----------------------------------------D-I-I-S--------------------------------------------
Iteration    Energy (Eh)           Delta-E    RMSDP     MaxDP     DIISErr   Damp  Time(sec)
-------------------------------------------------------------------------------------------
    1    -919.0257446153971159     0.00e+00  9.33e-04  4.03e-02  1.44e-01  0.700   3.8
    2    -918.8337643584648049     1.92e-01  9.99e-04  4.37e-02  1.30e-01  0.700   4.1
                               ***Turning on AO-DIIS***
    3    -918.9397871399057749    -1.06e-01  8.92e-04  3.67e-02  7.90e-02  0.700   3.8
    4    -919.1508899198627205    -2.11e-01  1.63e-03  8.72e-02  3.24e-02  0.000   3.8
    5    -919.4941802363148327    -3.43e-01  4.63e-04  1.83e-02  3.57e-02  0.000   3.9
    6    -919.5086360142443027    -1.45e-02  2.78e-04  1.32e-02  1.67e-02  0.000   4.7
    7    -919.5123150578144759    -3.68e-03  1.17e-04  5.81e-03  5.62e-03  0.000   3.9
                              *** Initializing SOSCF ***
---------------------------------------S-O-S-C-F--------------------------------------
Iteration    Energy (Eh)           Delta-E    RMSDP     MaxDP     MaxGrad    Time(sec)
--------------------------------------------------------------------------------------
    8    -919.5127841809405709    -4.69e-04  4.93e-05  2.17e-03  1.39e-03     4.1
    9    -919.5128241185486786    -3.99e-05  3.26e-05  1.29e-03  1.95e-04     3.5
   10    -919.5128287386785360    -4.62e-06  2.14e-05  1.01e-03  9.39e-05     3.6
   11    -919.5128296688615137    -9.30e-07  8.96e-06  3.43e-04  6.08e-05     3.5
                 **** Energy Check signals convergence ****

               *****************************************************
               *                     SUCCESS                       *
               *           SCF CONVERGED AFTER  11 CYCLES          *
               *****************************************************

             **** ENERGY FILE WAS UPDATED (compas3D_hc_c24h14_0pent_5_tz_rijk.en.tmp) ****

----------------
TOTAL SCF ENERGY
----------------

Total Energy       :       -919.51282966886151 Eh          -25021.21615 eV

Components:
Nuclear Repulsion  :       1794.76472359723107 Eh           48838.03101 eV
Electronic Energy  :      -2714.27755326609258 Eh          -73859.24716 eV
One Electron Energy:      -4810.15094069722636 Eh         -130890.86146 eV
Two Electron Energy:       2095.87338743113378 Eh           57031.61430 eV

Virial components:
Potential Energy   :      -1836.33053842109575 Eh          -49969.09433 eV
Kinetic Energy     :        916.81770875223435 Eh           24947.87818 eV
Virial Ratio       :          2.00293964753396

DFT components:
N(Alpha)           :       79.000001439392 electrons
N(Beta)            :       79.000001439392 electrons
N(Total)           :      158.000002878785 electrons
E(X)               :      -40.014326182668 Eh       
E(C)               :       -2.351980087216 Eh       
E(XC)              :      -42.366306269884 Eh       

---------------
SCF CONVERGENCE
---------------

  Last Energy change         ...    9.3018e-07  Tolerance :   1.0000e-06
  Last MAX-Density change    ...    3.4253e-04  Tolerance :   1.0000e-05
  Last RMS-Density change    ...    8.9649e-06  Tolerance :   1.0000e-06
  Last DIIS Error            ...    1.3854e-03  Tolerance :   1.0000e-06
  Last Orbital Gradient      ...    6.0776e-05  Tolerance :   5.0000e-05
  Last Orbital Rotation      ...    1.3392e-04  Tolerance :   5.0000e-05


----------------
ORBITAL ENERGIES
----------------

  NO   OCC          E(Eh)            E(eV) 
   0   2.0000     -10.841964      -295.0249 
   1   2.0000     -10.840410      -294.9826 
   2   2.0000     -10.839101      -294.9469 
   3   2.0000     -10.835208      -294.8410 
   4   2.0000     -10.834916      -294.8331 
   5   2.0000     -10.833923      -294.8060 
   6   2.0000     -10.833438      -294.7928 
   7   2.0000     -10.833420      -294.7923 
   8   2.0000     -10.832841      -294.7766 
   9   2.0000     -10.831959      -294.7526 
  10   2.0000     -10.827020      -294.6182 
  11   2.0000     -10.825749      -294.5836 
  12   2.0000     -10.825370      -294.5733 
  13   2.0000     -10.825336      -294.5724 
  14   2.0000     -10.825040      -294.5643 
  15   2.0000     -10.824294      -294.5440 
  16   2.0000     -10.824186      -294.5411 
  17   2.0000     -10.824068      -294.5379 
  18   2.0000     -10.824039      -294.5371 
  19   2.0000     -10.823826      -294.5313 
  20   2.0000     -10.823543      -294.5236 
  21   2.0000     -10.823391      -294.5194 
  22   2.0000     -10.822811      -294.5037 
  23   2.0000     -10.822091      -294.4841 
  24   2.0000      -1.092058       -29.7164 
  25   2.0000      -1.068411       -29.0729 
  26   2.0000      -1.036992       -28.2180 
  27   2.0000      -1.015575       -27.6352 
  28   2.0000      -1.002625       -27.2828 
  29   2.0000      -0.962196       -26.1827 
  30   2.0000      -0.954078       -25.9618 
  31   2.0000      -0.924113       -25.1464 
  32   2.0000      -0.914136       -24.8749 
  33   2.0000      -0.912126       -24.8202 
  34   2.0000      -0.882370       -24.0105 
  35   2.0000      -0.868632       -23.6367 
  36   2.0000      -0.790171       -21.5016 
  37   2.0000      -0.785241       -21.3675 
  38   2.0000      -0.769261       -20.9327 
  39   2.0000      -0.754578       -20.5331 
  40   2.0000      -0.750358       -20.4183 
  41   2.0000      -0.730042       -19.8654 
  42   2.0000      -0.701468       -19.0879 
  43   2.0000      -0.655613       -17.8401 
  44   2.0000      -0.647141       -17.6096 
  45   2.0000      -0.635920       -17.3043 
  46   2.0000      -0.632164       -17.2020 
  47   2.0000      -0.612917       -16.6783 
  48   2.0000      -0.607022       -16.5179 
  49   2.0000      -0.589861       -16.0509 
  50   2.0000      -0.575231       -15.6528 
  51   2.0000      -0.562906       -15.3175 
  52   2.0000      -0.545707       -14.8494 
  53   2.0000      -0.537629       -14.6296 
  54   2.0000      -0.532164       -14.4809 
  55   2.0000      -0.530230       -14.4283 
  56   2.0000      -0.519976       -14.1493 
  57   2.0000      -0.516035       -14.0420 
  58   2.0000      -0.513744       -13.9797 
  59   2.0000      -0.499365       -13.5884 
  60   2.0000      -0.494972       -13.4689 
  61   2.0000      -0.490641       -13.3510 
  62   2.0000      -0.486685       -13.2434 
  63   2.0000      -0.470689       -12.8081 
  64   2.0000      -0.460372       -12.5274 
  65   2.0000      -0.450140       -12.2489 
  66   2.0000      -0.444565       -12.0972 
  67   2.0000      -0.432830       -11.7779 
  68   2.0000      -0.426876       -11.6159 
  69   2.0000      -0.415486       -11.3060 
  70   2.0000      -0.407874       -11.0988 
  71   2.0000      -0.400923       -10.9097 
  72   2.0000      -0.359212        -9.7747 
  73   2.0000      -0.349604        -9.5132 
  74   2.0000      -0.318919        -8.6782 
  75   2.0000      -0.307272        -8.3613 
  76   2.0000      -0.299262        -8.1433 
  77   2.0000      -0.257242        -6.9999 
  78   2.0000      -0.234671        -6.3857 
  79   0.0000      -0.005102        -0.1388 
  80   0.0000       0.016156         0.4396 
  81   0.0000       0.055807         1.5186 
  82   0.0000       0.059886         1.6296 
  83   0.0000       0.067255         1.8301 
  84   0.0000       0.100102         2.7239 
  85   0.0000       0.112692         3.0665 
  86   0.0000       0.114384         3.1125 
  87   0.0000       0.116126         3.1599 
  88   0.0000       0.118950         3.2368 
  89   0.0000       0.127155         3.4601 
*Only the first 10 virtual orbitals were printed.
-------
TIMINGS
-------

Total SCF time: 0 days 0 hours 0 min 58 sec 

Total time                  ....      58.034 sec
Sum of individual times     ....      57.697 sec  ( 99.4%)

SCF preparation             ....      14.665 sec  ( 25.3%)
Fock matrix formation       ....      34.266 sec  ( 59.0%)
  Startup                   ....       1.210 sec  (  3.5% of F)
  RI-JK                     ....      24.748 sec  ( 72.2% of F)
  XC integration            ....       5.809 sec  ( 17.0% of F)
    XC Preparation          ....       0.000 sec  (  0.0% of XC)
    Basis function eval.    ....       0.453 sec  (  7.8% of XC)
    Density eval.           ....       0.662 sec  ( 11.4% of XC)
    XC-Functional eval.     ....       0.031 sec  (  0.5% of XC)
    XC-Potential eval.      ....       0.878 sec  ( 15.1% of XC)
Diagonalization             ....       0.000 sec  (  0.0%)
Density matrix formation    ....       1.528 sec  (  2.6%)
Total Energy calculation    ....       0.949 sec  (  1.6%)
Population analysis         ....       0.000 sec  (  0.0%)
Orbital Transformation      ....       0.747 sec  (  1.3%)
Orbital Orthonormalization  ....       0.000 sec  (  0.0%)
DIIS solution               ....       4.311 sec  (  7.4%)
SOSCF solution              ....       1.159 sec  (  2.0%)
Finished LeanSCF after  58.4 sec

Maximum memory used throughout the entire LEANSCF-calculation: 152.1 MB


           ************************************************************
           *        Program running with 104 parallel MPI-processes   *
           *              working on a common directory               *
           ************************************************************

------------------------------------------------------------------------------
                                ORCA  MP2 
------------------------------------------------------------------------------


-------------
RI-MP2 ENERGY
-------------
Dimension of the orbital basis            ...  828
Dimension of the AuxC basis               ... 2034
Memory devoted to MP2                     ... 4096 MB   
Data format for matrix containers         ... DOUBLE
Compression type for matrix containers    ... UNCOMPRESSED
Scaling for aa/bb pairs                   ...   5.710e-02
Scaling for ab pairs                      ...   5.979e-01
Overall scaling of the MP2 energy         ...   1.000e+00

-----------------------
SHARK RI TRANSFORMATION
-----------------------

Number of basis functions                ...    828
Number of aux functions                  ...   2034
Number of operators                      ...      1
Generation of IJK                        ... NO
Generation of IAK                        ... YES
Generation of ABK                        ... NO
Orbital Range Operator  0:    0-  78 to   79- 827

Aux basis identifier                     ...   AUXC
Contraction scheme used                  ... SEGMENTED
Do orthogonalization                     ... YES
All operator combinations                ... NO
Transpose (ia|K)                         ... NO
Integral generator used                  ... LIBINT
Starting integral generation + trafo... 
Half trafo (segmented) done. Total time =  0.8 sec. integrals=  0.3 sec trafo=  0.3 sec
Integral generation and half transformation done (  0.8 sec)

Reading or making V^(-1/2)          ... done (  0.2 sec)
Sorting IAK integrals               ... done (  1.8 sec)

SHARK RI integral transformation done. Total time =  2.8 sec.

Opening buffers                              ... done

Starting loop over batches of integrals:

Operator 0  - window                       ... (  0- 78)x( 79-827)
Operator 0  - Memory available             ...  4096 MB
Operator 0  - Memory needed per MO         ...  11.6 MB
Operator 0  - Number of orbitals per batch ... 1
Operator 0  - Number of batches            ... 1

OPERATOR  0   PASS   0:  MOs     0 ...    0 +    1 ...    1 +    2 ...    2 +    3 ...    3
                            +    4 ...    4 +    5 ...    5 +    6 ...    6 +    7 ...    7
                            +    8 ...    8 +    9 ...    9 +   10 ...   10 +   11 ...   11
                            +   12 ...   12 +   13 ...   13 +   14 ...   14 +   15 ...   15
                            +   16 ...   16 +   17 ...   17 +   18 ...   18 +   19 ...   19
                            +   20 ...   20 +   21 ...   21 +   22 ...   22 +   23 ...   23
                            +   24 ...   24 +   25 ...   25 +   26 ...   26 +   27 ...   27
                            +   28 ...   28 +   29 ...   29 +   30 ...   30 +   31 ...   31
                            +   32 ...   32 +   33 ...   33 +   34 ...   34 +   35 ...   35
                            +   36 ...   36 +   37 ...   37 +   38 ...   38 +   39 ...   39
                            +   40 ...   40 +   41 ...   41 +   42 ...   42 +   43 ...   43
                            +   44 ...   44 +   45 ...   45 +   46 ...   46 +   47 ...   47
                            +   48 ...   48 +   49 ...   49 +   50 ...   50 +   51 ...   51
                            +   52 ...   52 +   53 ...   53 +   54 ...   54 +   55 ...   55
                            +   56 ...   56 +   57 ...   57 +   58 ...   58 +   59 ...   59
                            +   60 ...   60 +   61 ...   61 +   62 ...   62 +   63 ...   63
                            +   64 ...   64 +   65 ...   65 +   66 ...   66 +   67 ...   67
                            +   68 ...   68 +   69 ...   69 +   70 ...   70 +   71 ...   71
                            +   72 ...   72 +   73 ...   73 +   74 ...   74 +   75 ...   75
                            +   76 ...   76 +   77 ...   77 +   78 ...   78
  Reading integrals       ... ok
Time spent in pair loops =     4.619 sec

-----------------------------------------------
 RI-MP2 CORRELATION ENERGY:     -2.142012360 Eh
-----------------------------------------------


-------
TIMINGS
-------

Total time                :    8.304 sec
Integral trafo            :    2.868 sec ( 34.5%)
I/O of integrals          :    0.006 sec (  0.1%)
K(i,j) operators          :    0.044 sec (  0.5%)
T(i,j) pair energies      :    0.010 sec (  0.1%)
V**(-1/2)                 :    0.814 sec (  9.8%)


---------------------------------------
MP2 TOTAL ENERGY:     -921.654842028 Eh
---------------------------------------

Maximum memory used throughout the entire MP2-calculation: 110.9 MB


-------------------------------------------------------------------------------
                          DFT DISPERSION CORRECTION                            
                                                                               
                                DFTD4 V3.4.0                                   
-------------------------------------------------------------------------------
The REV-DSD-PBEP86-2021 functional is recognized
A user input s6-coefficient scaling factor has been recognized
A user input a1-coefficient scaling factor has been recognized
A user input s8-coefficient scaling factor has been recognized
A user input a2-coefficient scaling factor has been recognized
A user input s9-coefficient scaling factor has been recognized
Active option DFTDOPT                   ...         5   

-------------------------   ----------------
Dispersion correction           -0.038002525
-------------------------   ----------------


-------------------------   --------------------
FINAL SINGLE POINT ENERGY      -921.692844553206
-------------------------   --------------------



           ************************************************************
           *        Program running with 104 parallel MPI-processes   *
           *              working on a common directory               *
           ************************************************************

------------------------------------------------------------------------------
                              ORCA PROPERTY CALCULATIONS
------------------------------------------------------------------------------

GBWName                                 ... compas3D_hc_c24h14_0pent_5_tz_rijk.gbw
Number of atoms                         ...     38
Number of basis functions               ...    828
Max core memory                         ...   1024 MB

Electric properties:
Dipole moment                           ... YES
Quadrupole moment                       ...  NO
Static polarizability (Dipole/Dipole)   ...  NO
Static polarizability (Dipole/Quad.)    ...  NO
Static polarizability (Quad./Quad.)     ...  NO
Static polarizability (Velocity)        ...  NO

Atomic electric properties:
Dipole moment                           ...  NO
Quadrupole moment                       ...  NO
Static polarizability                   ...  NO

Choice of electric origin               ... Center of mass
Position of electric origin             ...    -0.130683     0.029766    -0.033665

General magnetic properties:
Magnetizability                         ...  NO

EPR properties:
g-Tensor (aka g-matrix)                 ...  NO
Zero-Field splitting spin-orbit         ...  NO
Zero-field splitting spin-spin          ...  NO
Hyperfine couplings                     ...  NO (   0 nuclei)
Quadrupole couplings                    ...  NO (   0 nuclei)
Contact density                         ...  NO (   0 nuclei)

NMR properties:
Chemical shifts                         ...  NO (   0 nuclei)
Spin-rotation constants                 ...  NO (   0 nuclei)
Spin-spin couplings                     ...  NO (   0 nuclei,    0 pairs)

Choice of magnetic origin               ... GIAO
Position of magnetic origin             ...     0.000000     0.000000     0.000000

Properties with geometric perturbations:
SCF Hessian                             ...  NO
IR spectrum                             ...  NO
VCD spectrum                            ...  NO
X-ray spectroscopy properties:
SCF XES/XAS/RIXS spectra                ...  NO


-------------
DIPOLE MOMENT
-------------

Method             : SCF
Type of density    : Electron Density
Multiplicity       :   1
Irrep              :   0
Energy             :  -919.5128296688615137 Eh
Relativity type    : 
Basis              : AO
                                X                 Y                 Z
Electronic contribution:     -2.712322076       0.598117062      -0.681343654
Nuclear contribution   :      2.691266250      -0.612992051       0.695338624
                        -----------------------------------------
Total Dipole Moment    :     -0.021055826      -0.014874989       0.013994970
                        -----------------------------------------
Magnitude (a.u.)       :      0.029333809
Magnitude (Debye)      :      0.074560616



--------------------
Rotational spectrum 
--------------------
 
Rotational constants in cm-1:             0.019108             0.005580             0.004379 
Rotational constants in MHz :           572.830327           167.293358           131.264169 

Dipole components along the rotational axes: 
x,y,z [a.u.] :     0.007258    -0.025999    -0.011481 
x,y,z [Debye]:     0.018449    -0.066085    -0.029183 

 

Dipole moment calculation done in   0.1 sec 

Maximum memory used throughout the entire PROP-calculation: 69.6 MB

--------------------------------
SUGGESTED CITATIONS FOR THIS RUN
--------------------------------

Below you find a list of papers that are relevant to this ORCA run
We neither can nor want to force you to cite these papers, but we appreciate if you do
You receive ORCA, which is the product of decades of hard work by many enthusiastic individuals, for free
The only thing we kindly ask in return is that you cite our papers,
We deeply appreciate it, if you show your appreciation for ORCA by not just citing the generic ORCA reference.

Please note that relegating all ORCA citations to the supporting information does *not* help us.
SI sections are not indexed - citations you put there will not count into any citation statistics
But we need these citations in order to attract the funding resources that allow us to do what we are doing

Therefore, if you are a happy ORCA user, please consider citing a few of the papers listed below in the main body of your paper

In addition to the list printed below, the program has created the file compas3D_hc_c24h14_0pent_5_tz_rijk.bibtex that contains the list in bibtex format
You can import this file easily into all common literature databanks and citation aid programs


List of essential papers. We consider these as the minimum necessary citations

  1. Neese,F.
     Software update: the ORCA program system, version 5.0
     WIRES Comput. Molec. Sci., 2022 12(1)e1606
     doi.org/10.1002/wcms.1606

List of papers to cite with high priority. The work reported in these papers was absolutely
necessary for this run to complete.
Our perspective: the developers of density functionals and basis sets usually get cited in chemistry papers
Good! But without the algorithms to do something with them, the functionals or basis sets would not do anything.
Hence, in our opinion, the algorithm design and method developments papers are equally worthy of getting cited

  1. Neese,F.
     An improvement of the resolution of the identity approximation for the formation of the Coulomb matrix
     J. Comp. Chem., 2003 24(14)1740-1747
     doi.org/10.1002/jcc.10318
  2. Kossmann,S.; Neese,F.
     Comparison of two efficient approximate Hartee-Fock approaches
     Chem. Phys. Lett., 2009 481 240-243
     doi.org/10.1016/j.cplett.2009.09.073
  3. Neese,F.
     The SHARK Integral Generation and Digestion System
     J. Comp. Chem., 2022  1-16
     doi.org/10.1002/jcc.26942
  4. Caldeweyher,E.; Bannwarth,C.; Grimme,S.
     Extension of the D3 dispersion coefficient model
     J. Chem. Phys., 2017 147 034112
     doi.org/10.1063/1.4993215
  5. Caldeweyher,E.; Ehlert,S.; Hansen,A.; Neugebauer,H.; Spicher,S.; Bannwarth,C.; Grimme,S.
     A generally applicable atomic-charge dependent London dispersion correction
     J. Chem. Phys., 2019 150 154122
     doi.org/10.1063/1.5090222
  6. Caldeweyher,E.; Mewes,J.; Ehlert,S.; Grimme,S.
     Extension and evaluation of the D4 London-dispersion model for periodic systems
     Phys. Chem. Chem. Phys., 2020 22(16)8499-8512
     doi.org/10.1039/D0CP00502A
  7. Wittmann,L.; Gordiy,I.; Friede,M.; Helmich-Paris,B.; Grimme,S.; Hansen,A.; Bursch,M.
     Extension of the D3 and D4 London Dispersion Corrections to the full Actinides Series
     Phys. Chem. Chem. Phys., 2024 26(32)21379-21394
     doi.org/https://doi.org/10.1039/D4CP01514B 

List of suggested additional citations. These are papers that are important in the 'surrounding' of 
of this run, or papers that preceded the highly important papers. If you like your results we are grateful for a citation.

  1. Neese,F.
     The ORCA program system
     WIRES Comput. Molec. Sci., 2012 2(1)73-78
     doi.org/10.1002/wcms.81
  2. Neese,F.
     Software update: the ORCA program system, version 4.0
     WIRES Comput. Molec. Sci., 2018 8(1)1-6
     doi.org/10.1002/wcms.1327
  3. Neese,F.; Wennmohs,F.; Becker,U.; Riplinger,C.
     The ORCA quantum chemistry program package
     J. Chem. Phys., 2020 152 Art. No. L224108
     doi.org/10.1063/5.0004608

List of optional additional citations

  1. Neese,F.
     Approximate second-order SCF convergence for spin unrestricted wavefunctions
     Chem. Phys. Lett., 2000 325(1-3)93-98
     doi.org/10.1016/s0009-2614(00)00662-x

Timings for individual modules:

Sum of individual times          ...      142.778 sec (=   2.380 min)
Startup calculation              ...       22.529 sec (=   0.375 min)  15.8 %
SCF iterations                   ...       77.619 sec (=   1.294 min)  54.4 %
Property calculations            ...       16.242 sec (=   0.271 min)  11.4 %
MP2 module                       ...       26.389 sec (=   0.440 min)  18.5 %
                             ****ORCA TERMINATED NORMALLY****
TOTAL RUN TIME: 0 days 0 hours 2 minutes 51 seconds 789 msec
