
                                 *****************
                                 * O   R   C   A *
                                 *****************

                                            #,                                       
                                            ###                                      
                                            ####                                     
                                            #####                                    
                                            ######                                   
                                           ########,                                 
                                     ,,################,,,,,                         
                               ,,#################################,,                 
                          ,,##########################################,,             
                       ,#########################################, ''#####,          
                    ,#############################################,,   '####,        
                  ,##################################################,,,,####,       
                ,###########''''           ''''###############################       
              ,#####''   ,,,,##########,,,,          '''####'''          '####       
            ,##' ,,,,###########################,,,                        '##       
           ' ,,###''''                  '''############,,,                           
         ,,##''                                '''############,,,,        ,,,,,,###''
      ,#''                                            '''#######################'''  
     '                                                          ''''####''''         
             ,#######,   #######,   ,#######,      ##                                
            ,#'     '#,  ##    ##  ,#'     '#,    #''#        ,####,   ,####,        
            ##       ##  ##   ,#'  ##            #'  '#       #'       #'  '#        
            ##       ##  #######   ##           ,######,      #####,   #    #        
            '#,     ,#'  ##    ##  '#,     ,#' ,#      #,     #,   #   #,  ,#        
             '#######'   ##     ##  '#######'  #'      '#     '####' # '####'        



                #########################################################
                #                        -***-                          #
                #          Department of theory and spectroscopy        #
                #                                                       #
                #                      Frank Neese                      #
                #                                                       #
                #     Directorship, Architecture, Infrastructure        #
                #                    SHARK, DRIVERS                     #
                #        Core code/Algorithms in most modules           #
                #                                                       #
                #        Max Planck Institute fuer Kohlenforschung      #
                #                Kaiser Wilhelm Platz 1                 #
                #                 D-45470 Muelheim/Ruhr                 #
                #                      Germany                          #
                #                                                       #
                #                  All rights reserved                  #
                #                        -***-                          #
                #########################################################


                         Program Version 6.0.1  -  RELEASE   -


 With contributions from (in alphabetic order):
[Max-Planck-Institut fuer Kohlenforschung]                               
  Daniel Aravena         : Magnetic Suceptibility                        
  Michael Atanasov       : Ab Initio Ligand Field Theory (pilot matlab implementation)
  Alexander A. Auer      : GIAO ZORA, VPT2 properties, NMR spectrum      
  Ute Becker             : All parallelization in ORCA, NUMFREQ, NUMCALC 
  Giovanni Bistoni       : ED, misc. LED, open-shell LED, HFLD           
  Martin Brehm           : Molecular dynamics                            
  Dmytro Bykov           : pre 5.0 version of the SCF Hessian            
  Marcos Casanova-Páez   : Triplet and SCS-CIS(D). UHF-(DLPNO)-IP/EA/STEOM-CCSD. UHF-CVS-IP/STEOM-CCSD   
  Vijay G. Chilkuri      : MRCI spin determinant printing, contributions to CSF-ICE 
  Pauline Colinet        : FMM embedding                                 
  Dipayan Datta          : RHF DLPNO-CCSD density                        
  Achintya Kumar Dutta   : EOM-CC, STEOM-CC                              
  Nicolas Foglia         : Exact transition moments, OPA infrastructure, MCD improvements    
  Dmitry Ganyushin       : Spin-Orbit,Spin-Spin,Magnetic field MRCI      
  Miquel Garcia-Rates    : C-PCM and meta-GGA Hessian, CCSD/C-PCM, Gaussian charge scheme 
  Tiago L. C. Gouveia    : GS-ROHF, GS-ROCIS                             
  Yang Guo               : DLPNO-NEVPT2, F12-NEVPT2, CIM, IAO-localization        
  Andreas Hansen         : Spin unrestricted coupled pair/coupled cluster methods 
  Ingolf Harden          : AUTO-CI MPn and infrastructure                
  Benjamin Helmich-Paris : MC-RPA, TRAH-(SCF,CASSCF), AVAS, COSX integrals, SCF dyn. polar. 
  Lee Huntington         : MR-EOM, pCC                                   
  Robert Izsak           : Overlap fitted RIJCOSX, COSX-SCS-MP3, EOM     
  Riya Kayal             : Wick's Theorem for AUTO-CI, AUTO-CI UHF-CCSDT 
  Emily Kempfer          : AUTO-CI, RHF CISDT and CCSDT                  
  Christian Kollmar      : KDIIS, OOCD, Brueckner-CCSD(T), CCSD density, CASPT2, CASPT2-K, improved NEVPT2 
  Axel Koslowski         : Symmetry handling                             
  Simone Kossmann        : meta-GGA functionals, TD-DFT gradient, OOMP2, (MP2 Hessian; deprecated post 5.0) 
  Lucas Lang             : DCDCAS                                        
  Marvin Lechner         : AUTO-CI (C++ implementation), FIC-MRCC        
  Spencer Leger          : CASSCF response                               
  Dagmar Lenk            : GEPOL surface, SMD, ORCA-2-JSON               
  Dimitrios Liakos       : Extrapolation schemes; Compound Job, initial MDCI parallelization 
  Dimitrios Manganas     : Further ROCIS development; embedding schemes. LFT, Crystal Embedding 
  Dimitrios Pantazis     : SARC Basis sets                               
  Anastasios Papadopoulos: AUTO-CI, single reference methods and gradients 
  Taras Petrenko         : pre 6.0 DFT Hessian and TD-DFT gradient, (ASA, deprecated), ECA, 1-Electron XAS/XES, NRVS 
  Peter Pinski           : DLPNO-MP2, DLPNO-MP2 Gradient                 
  Christoph Reimann      : Effective Core Potentials                     
  Marius Retegan         : Local ZFS, SOC                                
  Christoph Riplinger    : Optimizer, TS searches, QM/MM, DLPNO-CCSD(T), (RO)-DLPNO pert. Triples 
  Michael Roemelt        : Original ROCIS implementation                 
  Masaaki Saitow         : Open-shell DLPNO-CCSD energy and density      
  Barbara Sandhoefer     : DKH picture change effects                    
  Kantharuban Sivalingam : CASSCF convergence/infrastructure, NEVPT2 and variants, FIC-MRCI 
  Bernardo de Souza      : ESD, SOC TD-DFT                               
  Georgi L. Stoychev     : AutoAux, RI-MP2 NMR, DLPNO-MP2 response, X2C  
  Van Anh Tran           : RI-MP2 g-tensors                              
  Willem Van den Heuvel  : Paramagnetic NMR                              
  Zikuan Wang            : NOTCH, Electric field optimization            
  Frank Wennmohs         : Technical directorship and infrastructure     
  Hang Xu                : AUTO-CI-Response properties                   
                                                                         
[FACCTs GmbH]                                                            
  Markus Bursch, Miquel Garcia-Rates, Christoph Riplinger, Bernardo de Souza, Georgi L. Stoychev 
                                                                 
  APM, Basis sets (HGBS, AHGBS, def-TZVP (Ac-Lr), def2-XVPD (La-Lu)), CI-OPT, improved COSX, DLPNO-Multilevel,           
  DOCKER, DRACO, updates on ESD, GOAT, IRC, LR-CPCM, MBIS, meta-GGA TD-DFT gradient, ML-optimized integration grids, 
  MM, NACMEs, nearIR, NEB, NEB-TS, NL-DFT gradient (VV10), 2- and 3-layer-ONIOM, interface openCOSMO-RS, QMMM,   
  Crystal-QMMM, SF, symmetry and pop. for TD-DFT, r2SCAN hybrids, SOLVATOR                                   
                                                                         
[Other institutions]                                                     
  V. Asgeirsson          : NEB                                           
  Christoph Bannwarth    : sTDA-DFT, sTD-DFT, PBEh-3c, B97-3c, D3        
  Sebastian Ehlert       : rSCAN, r2SCAN, r2SCAN-3c, D4, dhf basis sets  
  Marvin Friede          : D4 for Fr, Ra, Ac-Lr                          
  Lars Goerigk           : TD-DFT with DH, B97 family of functionals     
  Stefan Grimme          : VdW corrections, initial TS optimization, DFT functionals, gCP, sTDA/sTD-DF 
  Waldemar Hujo          : DFT-NL                                        
  H. Jonsson             : NEB                                           
  Holger Kruse           : gCP                                           
  Marcel Mueller         : wB97X-3c, vDZP basis set                      
  Hagen Neugebauer       : wr2SCAN                                       
  Tobias Risthaus        : range-separated hybrid DFT                    
  Lukas Wittmann         : regularized MP2, r2SCAN double-hybrids, wr2SCAN        
                                                                         
We gratefully acknowledge several colleagues who have allowed us to      
interface, adapt or use parts of their codes:                            
  Ed Valeev, F. Pavosevic, A. Kumar             : LibInt (2-el integral package), F12 methods 
  Garnet Chan, S. Sharma, J. Yang, R. Olivares  : DMRG                   
  Ulf Ekstrom                                   : XCFun DFT Library      
  Mihaly Kallay                                 : mrcc  (arbitrary order and MRCC methods)
  Frank Weinhold                                : gennbo (NPA and NBO analysis)           
  Simon Mueller                                 : openCOSMO-RS                            
  Christopher J. Cramer and Donald G. Truhlar   : smd solvation model                     
  S Lehtola, MJT Oliveira, MAL Marques          : LibXC Library                           
  Liviu Ungur et al                             : ANISO software                          


 Your calculation uses the libint2 library for the computation of 2-el integrals
 For citations please refer to: http://libint.valeyev.net

 Your ORCA version has been built with support for libXC version: 6.2.2
 For citations please refer to: https://libxc.gitlab.io

 This ORCA versions uses:
   CBLAS   interface :  Fast vector & matrix operations
   LAPACKE interface :  Fast linear algebra routines
   SCALAPACK package :  Parallel linear algebra routines
   Shared memory     :  Shared parallel matrices
   BLAS/LAPACK       :  OpenBLAS 0.3.27  USE64BITINT DYNAMIC_ARCH NO_AFFINITY SapphireRapids SINGLE_THREADED
        Core in use  :  SapphireRapids
   Copyright (c) 2011-2014, The OpenBLAS Project




***************************************
The coordinates will be read from file: /scratch/kx58/rs2200/dhdft/inputs/compas3D-xyzs/hc_c24h14_0pent_14.xyz
***************************************


Your calculation utilizes the atom-pairwise dispersion correction
based on EEQ partial charges (D4)


================================================================================

----- Orbital basis set information -----
Your calculation utilizes the basis: def2-SVP
   F. Weigend and R. Ahlrichs, Phys. Chem. Chem. Phys. 7, 3297 (2005).

----- AuxC basis set information -----
Your calculation utilizes the auxiliary basis: def2-SVP/C
  H-La, Hf-Rn : A. Hellweg, C. Hattig, S. Hofener and W. Klopper, Theor. Chem. Acc. 117, 587 (2007).
        Ce-Lu : J. Chmela and M. E. Harding, Mol. Phys. (2018).

----- AuxJK basis set information -----
Your calculation utilizes the auxiliary basis: def2/JK
   H-Ba, Hf-Rn: F. Weigend, J. Comput. Chem. 29, 167 (2008).

================================================================================
                                        WARNINGS
                       Please study these warnings very carefully!
================================================================================


WARNING: No MP2 level density has been requested!
         To calculate MP2 level properties use
         %mp2 Density relaxed end
         or
         %mp2 Density unrelaxed end
         Otherwise for double-hybrid DFT only the energy is correct!

================================================================================
                                       INPUT FILE
================================================================================
NAME = compas3D_hc_c24h14_0pent_14_dz_rijk.inp
|  1> ! RKS revDSD-PBEP86-D4/2021 defgrid3  RIJK NOPOP NoFrozencore NoUseSym
|  2> 
|  3> %basis
|  4> Basis "def2-SVP"
|  5> AuxJK "def2/JK"
|  6> AuxC "def2-SVP/C"
|  7> end
|  8> 
|  9> %method
| 10> ScalHFX 0.69
| 11> ScalDFX 0.31
| 12> ScalDFC 0.4038
| 13> ScalLDAC 0.4038
| 14> 
| 15> D4S6 0.4612
| 16> D4S8 0.0
| 17> D4A1 0.44
| 18> D4A2 3.60
| 19> end
| 20> 
| 21> %mp2
| 22> PS 0.5979
| 23> PT 0.0571
| 24> end
| 25> 
| 26> %pal
| 27> nprocs 104
| 28> end
| 29> 
| 30> *XYZFILE 0 1 /scratch/kx58/rs2200/dhdft/inputs/compas3D-xyzs/hc_c24h14_0pent_14.xyz
| 31> 
| 32>                          ****END OF INPUT****
================================================================================

                       ****************************
                       * Single Point Calculation *
                       ****************************

---------------------------------
CARTESIAN COORDINATES (ANGSTROEM)
---------------------------------
  C      0.759232    0.053617   -0.000985
  C     -0.542228   -0.583342    0.003010
  C     -1.729779    0.202004    0.003451
  C     -1.639525    1.678757   -0.002242
  C     -0.354081    2.304046   -0.002876
  C      0.846595    1.529830   -0.000820
  C      1.876313   -0.730768   -0.004751
  C      1.827855   -2.156341   -0.002740
  C      0.575969   -2.811919    0.003599
  C     -0.633702   -2.002574    0.006238
  C     -1.907807   -2.601707    0.011586
  C     -3.050791   -1.834421    0.013364
  C     -2.960251   -0.442173    0.009125
  C     -2.765987    2.481218   -0.006520
  C     -2.679774    3.885945   -0.010110
  C     -1.456627    4.501304   -0.009142
  C     -0.268652    3.728093   -0.005477
  C      1.002184    4.353099   -0.004331
  C      2.144040    3.595553   -0.000654
  C      2.061887    2.192088    0.001086
  C      3.019518   -2.917184   -0.006467
  C      2.980082   -4.292002   -0.003767
  C      1.737327   -4.949415    0.002901
  C      0.565197   -4.223842    0.006507
  H      2.867403   -0.279139   -0.009434
  H     -1.999705   -3.686291    0.014398
  H     -4.031748   -2.313291    0.017903
  H     -3.882878    0.135018    0.010542
  H     -3.758278    2.033814   -0.007217
  H     -3.597179    4.477710   -0.013408
  H     -1.375665    5.590349   -0.011336
  H      1.052507    5.444009   -0.006143
  H      3.125206    4.074255    0.000831
  H      2.993133    1.628016    0.004157
  H      3.976910   -2.390950   -0.011461
  H      3.905868   -4.870631   -0.006702
  H      1.698308   -6.040534    0.005222
  H     -0.380877   -4.763202    0.011665

----------------------------
CARTESIAN COORDINATES (A.U.)
----------------------------
  NO LB      ZA    FRAG     MASS         X           Y           Z
   0 C     6.0000    0    12.011    1.434740    0.101321   -0.001862
   1 C     6.0000    0    12.011   -1.024663   -1.102357    0.005689
   2 C     6.0000    0    12.011   -3.268808    0.381732    0.006521
   3 C     6.0000    0    12.011   -3.098253    3.172392   -0.004238
   4 C     6.0000    0    12.011   -0.669115    4.354016   -0.005434
   5 C     6.0000    0    12.011    1.599833    2.890959   -0.001549
   6 C     6.0000    0    12.011    3.545718   -1.380951   -0.008978
   7 C     6.0000    0    12.011    3.454145   -4.074894   -0.005179
   8 C     6.0000    0    12.011    1.088424   -5.313756    0.006800
   9 C     6.0000    0    12.011   -1.197522   -3.784316    0.011788
  10 C     6.0000    0    12.011   -3.605232   -4.916514    0.021895
  11 C     6.0000    0    12.011   -5.765159   -3.466552    0.025254
  12 C     6.0000    0    12.011   -5.594064   -0.835587    0.017244
  13 C     6.0000    0    12.011   -5.226958    4.688822   -0.012321
  14 C     6.0000    0    12.011   -5.064039    7.343372   -0.019106
  15 C     6.0000    0    12.011   -2.752627    8.506232   -0.017277
  16 C     6.0000    0    12.011   -0.507680    7.045075   -0.010349
  17 C     6.0000    0    12.011    1.893854    8.226164   -0.008185
  18 C     6.0000    0    12.011    4.051649    6.794610   -0.001235
  19 C     6.0000    0    12.011    3.896402    4.142446    0.002051
  20 C     6.0000    0    12.011    5.706061   -5.512678   -0.012221
  21 C     6.0000    0    12.011    5.631540   -8.110709   -0.007119
  22 C     6.0000    0    12.011    3.283072   -9.353038    0.005482
  23 C     6.0000    0    12.011    1.068068   -7.981904    0.012297
  24 H     1.0000    0     1.008    5.418606   -0.527496   -0.017827
  25 H     1.0000    0     1.008   -3.778895   -6.966081    0.027207
  26 H     1.0000    0     1.008   -7.618900   -4.371486    0.033831
  27 H     1.0000    0     1.008   -7.337577    0.255148    0.019922
  28 H     1.0000    0     1.008   -7.102117    3.843352   -0.013638
  29 H     1.0000    0     1.008   -6.797684    8.461645   -0.025338
  30 H     1.0000    0     1.008   -2.599631   10.564229   -0.021422
  31 H     1.0000    0     1.008    1.988950   10.287686   -0.011608
  32 H     1.0000    0     1.008    5.905784    7.699226    0.001570
  33 H     1.0000    0     1.008    5.656202    3.076504    0.007855
  34 H     1.0000    0     1.008    7.515271   -4.518242   -0.021658
  35 H     1.0000    0     1.008    7.381020   -9.204158   -0.012666
  36 H     1.0000    0     1.008    3.209338  -11.414954    0.009868
  37 H     1.0000    0     1.008   -0.719753   -9.001148    0.022043

--------------------------------
INTERNAL COORDINATES (ANGSTROEM)
--------------------------------
 C      0   0   0     0.000000000000     0.00000000     0.00000000
 C      1   0   0     1.448975710705     0.00000000     0.00000000
 C      2   1   0     1.423742929921   120.44464483     0.00000000
 C      3   2   1     1.479519905096   119.97961137     0.09191505
 C      4   3   2     1.429459305122   119.43727104   359.75706874
 C      5   4   3     1.428649139885   121.24525242     0.12699587
 C      1   2   3     1.364970453422   118.84675153   180.16573431
 C      7   1   2     1.426397964576   123.12822519   359.89372782
 C      8   7   1     1.413166444732   119.58669871     0.00000000
 C      2   1   3     1.422180121006   119.76595709   179.98713562
 C     10   2   1     1.407953773445   118.87274135   179.93081535
 C     11  10   2     1.376642296254   120.94180721     0.00000000
 C      3   2   1     1.388905683523   118.88956008   180.08470473
 C      4   3   2     1.383068360367   121.96804161   179.78105092
 C     14   4   3     1.407374643699   121.95324213   179.91242482
 C     15  14   4     1.369217379192   120.21854296     0.00000000
 C     16  15  14     1.417445823226   120.23456903     0.04482761
 C     17  16  15     1.416212843485   120.75308485   180.00522134
 C     18  17  16     1.370300974870   120.25012476   179.99386976
 C      6   5   4     1.384024351759   118.59780230   180.12460130
 C      8   7   1     1.413843992331   120.60982233   180.01819598
 C     21   8   7     1.375386752818   120.91351980   179.96164454
 C     22  21   8     1.405943486936   119.52184194     0.00000000
 C     23  22  21     1.378534226554   120.36331735     0.00000000
 H      7   1   2     1.089151175708   120.42659478   179.90044743
 H     11  10   2     1.088473954049   120.02819717   180.01664275
 H     12  11  10     1.091611316268   120.10645198   180.02307356
 H     13   3   2     1.088298450767   120.33714678   179.94160423
 H     14   4   3     1.088490877986   120.26530283   359.91165917
 H     15  14   4     1.091709088537   119.31193118   180.00127029
 H     16  15  14     1.092052629289   120.95824438   180.03423972
 H     18  17  16     1.092072087516   118.82923848     0.00000000
 H     19  18  17     1.091716336198   120.43110730   180.03608940
 H     20   6   5     1.088764139678   120.20840398   179.90980845
 H     21   8   7     1.092495487564   118.64777922   359.96725660
 H     22  21   8     1.091740762125   120.36238674   179.99895651
 H     23  22  21     1.091818972166   119.92687745   180.00874183
 H     24  23  22     1.089032793569   118.55433925   180.00024735

---------------------------
INTERNAL COORDINATES (A.U.)
---------------------------
 C      0   0   0     0.000000000000     0.00000000     0.00000000
 C      1   0   0     2.738167267936     0.00000000     0.00000000
 C      2   1   0     2.690484222657   120.44464483     0.00000000
 C      3   2   1     2.795887430317   119.97961137     0.09191505
 C      4   3   2     2.701286606266   119.43727104   359.75706874
 C      5   4   3     2.699755615844   121.24525242     0.12699587
 C      1   2   3     2.579420337862   118.84675153   180.16573431
 C      7   1   2     2.695501511031   123.12822519   359.89372782
 C      8   7   1     2.670497562191   119.58669871     0.00000000
 C      2   1   3     2.687530941808   119.76595709   179.98713562
 C     10   2   1     2.660647041032   118.87274135   179.93081535
 C     11  10   2     2.601476924293   120.94180721     0.00000000
 C      3   2   1     2.624651367705   118.88956008   180.08470473
 C      4   3   2     2.613620425585   121.96804161   179.78105092
 C     14   4   3     2.659552644417   121.95324213   179.91242482
 C     15  14   4     2.587445864478   120.21854296     0.00000000
 C     16  15  14     2.678584415568   120.23456903     0.04482761
 C     17  16  15     2.676254421529   120.75308485   180.00522134
 C     18  17  16     2.589493563549   120.25012476   179.99386976
 C      6   5   4     2.615426987503   118.59780230   180.12460130
 C      8   7   1     2.671777941596   120.60982233   180.01819598
 C     21   8   7     2.599104291050   120.91351980   179.96164454
 C     22  21   8     2.656848150080   119.52184194     0.00000000
 C     23  22  21     2.605052154423   120.36331735     0.00000000
 H      7   1   2     2.058197440526   120.42659478   179.90044743
 H     11  10   2     2.056917677058   120.02819717   180.01664275
 H     12  11  10     2.062846432435   120.10645198   180.02307356
 H     13   3   2     2.056586023920   120.33714678   179.94160423
 H     14   4   3     2.056949658665   120.26530283   359.91165917
 H     15  14   4     2.063031195249   119.31193118   180.00127029
 H     16  15  14     2.063680393186   120.95824438   180.03423972
 H     18  17  16     2.063717163905   118.82923848     0.00000000
 H     19  18  17     2.063044891342   120.43110730   180.03608940
 H     20   6   5     2.057466048425   120.20840398   179.90980845
 H     21   8   7     2.064517274041   118.64777922   359.96725660
 H     22  21   8     2.063091049654   120.36238674   179.99895651
 H     23  22  21     2.063238845213   119.92687745   180.00874183
 H     24  23  22     2.057973730705   118.55433925   180.00024735

---------------------
BASIS SET INFORMATION
---------------------
There are 2 groups of distinct atoms

 Group   1 Type C   : 7s4p1d contracted to 3s2p1d pattern {511/31/1}
 Group   2 Type H   : 4s1p contracted to 2s1p pattern {31/1}

Atom   0C    basis set group =>   1
Atom   1C    basis set group =>   1
Atom   2C    basis set group =>   1
Atom   3C    basis set group =>   1
Atom   4C    basis set group =>   1
Atom   5C    basis set group =>   1
Atom   6C    basis set group =>   1
Atom   7C    basis set group =>   1
Atom   8C    basis set group =>   1
Atom   9C    basis set group =>   1
Atom  10C    basis set group =>   1
Atom  11C    basis set group =>   1
Atom  12C    basis set group =>   1
Atom  13C    basis set group =>   1
Atom  14C    basis set group =>   1
Atom  15C    basis set group =>   1
Atom  16C    basis set group =>   1
Atom  17C    basis set group =>   1
Atom  18C    basis set group =>   1
Atom  19C    basis set group =>   1
Atom  20C    basis set group =>   1
Atom  21C    basis set group =>   1
Atom  22C    basis set group =>   1
Atom  23C    basis set group =>   1
Atom  24H    basis set group =>   2
Atom  25H    basis set group =>   2
Atom  26H    basis set group =>   2
Atom  27H    basis set group =>   2
Atom  28H    basis set group =>   2
Atom  29H    basis set group =>   2
Atom  30H    basis set group =>   2
Atom  31H    basis set group =>   2
Atom  32H    basis set group =>   2
Atom  33H    basis set group =>   2
Atom  34H    basis set group =>   2
Atom  35H    basis set group =>   2
Atom  36H    basis set group =>   2
Atom  37H    basis set group =>   2
---------------------------------
AUXILIARY/C BASIS SET INFORMATION
---------------------------------
There are 2 groups of distinct atoms

 Group   1 Type C   : 8s6p5d3f contracted to 6s5p4d1f pattern {311111/21111/2111/3}
 Group   2 Type H   : 4s3p2d contracted to 3s2p1d pattern {211/21/2}

Atom   0C    basis set group =>   1
Atom   1C    basis set group =>   1
Atom   2C    basis set group =>   1
Atom   3C    basis set group =>   1
Atom   4C    basis set group =>   1
Atom   5C    basis set group =>   1
Atom   6C    basis set group =>   1
Atom   7C    basis set group =>   1
Atom   8C    basis set group =>   1
Atom   9C    basis set group =>   1
Atom  10C    basis set group =>   1
Atom  11C    basis set group =>   1
Atom  12C    basis set group =>   1
Atom  13C    basis set group =>   1
Atom  14C    basis set group =>   1
Atom  15C    basis set group =>   1
Atom  16C    basis set group =>   1
Atom  17C    basis set group =>   1
Atom  18C    basis set group =>   1
Atom  19C    basis set group =>   1
Atom  20C    basis set group =>   1
Atom  21C    basis set group =>   1
Atom  22C    basis set group =>   1
Atom  23C    basis set group =>   1
Atom  24H    basis set group =>   2
Atom  25H    basis set group =>   2
Atom  26H    basis set group =>   2
Atom  27H    basis set group =>   2
Atom  28H    basis set group =>   2
Atom  29H    basis set group =>   2
Atom  30H    basis set group =>   2
Atom  31H    basis set group =>   2
Atom  32H    basis set group =>   2
Atom  33H    basis set group =>   2
Atom  34H    basis set group =>   2
Atom  35H    basis set group =>   2
Atom  36H    basis set group =>   2
Atom  37H    basis set group =>   2
----------------------------------
AUXILIARY/JK BASIS SET INFORMATION
----------------------------------
There are 2 groups of distinct atoms

 Group   1 Type C   : 14s10p6d2f1g contracted to 10s8p5d1f1g pattern {5111111111/31111111/21111/2/1}
 Group   2 Type H   : 4s2p2d contracted to 2s2p2d pattern {31/11/11}

Atom   0C    basis set group =>   1
Atom   1C    basis set group =>   1
Atom   2C    basis set group =>   1
Atom   3C    basis set group =>   1
Atom   4C    basis set group =>   1
Atom   5C    basis set group =>   1
Atom   6C    basis set group =>   1
Atom   7C    basis set group =>   1
Atom   8C    basis set group =>   1
Atom   9C    basis set group =>   1
Atom  10C    basis set group =>   1
Atom  11C    basis set group =>   1
Atom  12C    basis set group =>   1
Atom  13C    basis set group =>   1
Atom  14C    basis set group =>   1
Atom  15C    basis set group =>   1
Atom  16C    basis set group =>   1
Atom  17C    basis set group =>   1
Atom  18C    basis set group =>   1
Atom  19C    basis set group =>   1
Atom  20C    basis set group =>   1
Atom  21C    basis set group =>   1
Atom  22C    basis set group =>   1
Atom  23C    basis set group =>   1
Atom  24H    basis set group =>   2
Atom  25H    basis set group =>   2
Atom  26H    basis set group =>   2
Atom  27H    basis set group =>   2
Atom  28H    basis set group =>   2
Atom  29H    basis set group =>   2
Atom  30H    basis set group =>   2
Atom  31H    basis set group =>   2
Atom  32H    basis set group =>   2
Atom  33H    basis set group =>   2
Atom  34H    basis set group =>   2
Atom  35H    basis set group =>   2
Atom  36H    basis set group =>   2
Atom  37H    basis set group =>   2


           ************************************************************
           *        Program running with 104 parallel MPI-processes   *
           *              working on a common directory               *
           ************************************************************
------------------------------------------------------------------------------
                             ORCA STARTUP CALCULATIONS
                           -- RI-GTO INTEGRALS CHOSEN --
------------------------------------------------------------------------------
------------------------------------------------------------------------------
                   ___                                                        
                  /   \      - P O W E R E D   B Y -                         
                 /     \                                                     
                 |  |  |   _    _      __       _____    __    __             
                 |  |  |  | |  | |    /  \     |  _  \  |  |  /  |          
                  \  \/   | |  | |   /    \    | | | |  |  | /  /          
                 / \  \   | |__| |  /  /\  \   | |_| |  |  |/  /          
                |  |  |   |  __  | /  /__\  \  |    /   |      \           
                |  |  |   | |  | | |   __   |  |    \   |  |\   \          
                \     /   | |  | | |  |  |  |  | |\  \  |  | \   \       
                 \___/    |_|  |_| |__|  |__|  |_| \__\ |__|  \__/        
                                                                              
                      - O R C A' S   B I G   F R I E N D -                    
                                      &                                       
                       - I N T E G R A L  F E E D E R -                       
                                                                              
 v1 FN, 2020, v2 2021, v3 2022-2024                                           
------------------------------------------------------------------------------


----------------------
SHARK INTEGRAL PACKAGE
----------------------

Number of atoms                             ...     38
Number of basis functions                   ...    406
Number of shells                            ...    186
Maximum angular momentum                    ...      2
Integral batch strategy                     ... SHARK/LIBINT Hybrid
RI-J (if used) integral strategy            ... SPLIT-RIJ (Revised 2003 algorithm where possible)
Printlevel                                  ...      1
Contraction scheme used                     ... SEGMENTED contraction
Prescreening option                         ... SCHWARTZ
   Thresh                                   ... 1.000e-10
   Tcut                                     ... 1.000e-11
   Tpresel                                  ... 1.000e-11 
Coulomb Range Separation                    ... NOT USED
Exchange Range Separation                   ... NOT USED
Multipole approximations                    ... NOT USED
Finite Nucleus Model                        ... NOT USED
CABS basis                                  ... NOT available
Auxiliary Coulomb fitting basis             ... NOT available
Auxiliary J/K fitting basis                 ... AVAILABLE
   # of basis functions in Aux-JK           ...   2052
   # of shells in Aux-JK                    ...    684
   Maximum angular momentum in Aux-JK       ...      4
Auxiliary Correlation fitting basis         ... AVAILABLE
   # of basis functions in Aux-C            ...   1348
   # of shells in Aux-C                     ...    468
   Maximum angular momentum in Aux-C        ...      3
Auxiliary 'external' fitting basis          ... NOT available

Checking pre-screening integrals            ... done (  0.0 sec) Dimension = 186
Check shell pair data                       ... done (  0.0 sec)
Shell pair information
Shell pair cut-off parameter TPreSel        ...   1.0e-11
Total number of shell pairs                 ...     17391
Shell pairs after pre-screening             ...     12696
Total number of primitive shell pairs       ...     64615
Primitive shell pairs kept                  ...     30049
          la=0 lb=0:   3691 shell pairs
          la=1 lb=0:   4635 shell pairs
          la=1 lb=1:   1527 shell pairs
          la=2 lb=0:   1620 shell pairs
          la=2 lb=1:   1047 shell pairs
          la=2 lb=2:    176 shell pairs

Calculating one electron integrals          ... done (  0.5 sec)
Calculating RI/JK V-Matrix + Cholesky decomp... done (  0.6 sec)
Calculating RI/C V-Matrix + Cholesky decomp.... done (  0.3 sec)
Calculating Nuclear repulsion               ... done (  0.0 sec) ENN=   1799.471252575189 Eh

Diagonalization of the overlap matrix:
Smallest eigenvalue                        ... 1.144e-04
Time for diagonalization                   ...    0.020 sec
Threshold for overlap eigenvalues          ... 1.000e-07
Number of eigenvalues below threshold      ... 0
Time for construction of square roots      ...    0.012 sec
Total time needed                          ...    0.049 sec

-------------------
DFT GRID GENERATION
-------------------

General Integration Accuracy     IntAcc      ... 4.959
Radial Grid Type                 RadialGrid  ... OptM3 with GC (2021)
Angular Grid (max. ang.)         AngularGrid ... 6 (Lebedev-590)
Angular grid pruning method      GridPruning ... 4 (adaptive)
Weight generation scheme         WeightScheme... mBecke (2022)
Basis function cutoff            BFCut       ... 1.0000e-10
Integration weight cutoff        WCut        ... 1.0000e-14
Partially contracted basis set               ... off
Rotationally invariant grid construction     ... off
Angular grids for H and He will be reduced by one unit

Total number of grid points                  ...   457367
Total number of batches                      ...     7165
Average number of points per batch           ...       63
Average number of grid points per atom       ...    12036
Initializing property integral containers    ... done (  0.0 sec)

SHARK setup successfully completed in   7.9 seconds

Maximum memory used throughout the entire STARTUP-calculation: 89.3 MB


           ************************************************************
           *        Program running with 104 parallel MPI-processes   *
           *              working on a common directory               *
           ************************************************************
-------------------------------------------------------------------------------
                                 ORCA GUESS
                   Start orbitals & Density for SCF / CASSCF
-------------------------------------------------------------------------------

------------
SCF SETTINGS
------------
Hamiltonian:
 Density Functional     Method          .... DFT(GTOs)
 Exchange Functional    Exchange        .... PBE
   PBE kappa parameter   XKappa         ....  0.804000
   PBE mue parameter    XMuePBE         ....  0.219520
 Correlation Functional Correlation     .... P86
 LDA part of GGA corr.  LDAOpt          .... VWN-5
 Gradients option       PostSCFGGA      .... off
 Hybrid DFT is turned on
   Fraction HF Exchange ScalHFX         ....  0.690000
   Scaling of DF-GGA-X  ScalDFX         ....  0.310000
   Scaling of DF-GGA-C  ScalDFC         ....  0.403800
   Scaling of DF-LDA-C  ScalLDAC        ....  0.403800
   Perturbative correction              ....  1.000000
 RI-approximation to the Coulomb term is turned on
   Number of AuxJK basis functions      .... 2052
   RI-JK (J+K treated both via RI)      .... on


General Settings:
 Integral files         IntName         .... compas3D_hc_c24h14_0pent_14_dz_rijk
 Hartree-Fock type      HFTyp           .... RHF
 Total Charge           Charge          ....    0
 Multiplicity           Mult            ....    1
 Number of Electrons    NEL             ....  158
 Basis Dimension        Dim             ....  406
 Nuclear Repulsion      ENuc            ....   1799.4712525752 Eh

Convergence Acceleration:
 AO-DIIS                CNVDIIS         .... on
   Start iteration      DIISMaxIt       ....    12
   Startup error        DIISStart       ....  0.200000
   # of expansion vecs  DIISMaxEq       ....     5
   Bias factor          DIISBfac        ....   1.050
   Max. coefficient     DIISMaxC        ....  10.000
 MO-DIIS                CNVKDIIS        .... off
 Trust-Rad. Augm. Hess. CNVTRAH         .... auto
   Auto Start mean grad. ratio tolernc. ....  1.125000
   Auto Start start iteration           ....    50
   Auto Start num. interpolation iter.  ....    10
   Max. Number of Micro iterations      ....    24
   Max. Number of Macro iterations      .... Maxiter - #DIIS iter
   Number of Davidson start vectors     ....     2
   Converg. threshold    (grad. norm)   ....   5.000e-05
   Grad. Scal. Fac. for Micro threshold ....   0.100
   Minimum threshold for Micro iter.    ....   1.000e-02
   NR start threshold (gradient norm)   ....   1.000e-04
   Initial trust radius                 ....   0.400
   Minimum AH scaling param. (alpha)    ....   1.000
   Maximum AH scaling param. (alpha)    .... 1000.000
   Quad. conv. algorithm                .... NR
   White noise on init. David. guess    .... on
   Maximum white noise                  ....   0.010
   Pseudo random numbers                .... off
   Inactive MOs                         .... canonical
   Orbital update algorithm             .... Taylor
   Preconditioner                       .... Diag
   Full preconditioner red. dimension   ....   250
 SOSCF                  CNVSOSCF        .... on
   Start iteration      SOSCFMaxIt      ....   150
   Startup grad/error   SOSCFStart      ....  0.003300
   Hessian update       SOSCFHessUp     .... L-BFGS
 Level Shifting         CNVShift        .... on
   Level shift para.    LevelShift      ....    0.2500
   Turn off err/grad.   ShiftErr        ....    0.0010
 Zerner damping         CNVZerner       .... off
 Static damping         CNVDamp         .... on
   Fraction old density DampFac         ....    0.7000
   Max. Damping (<1)    DampMax         ....    0.9800
   Min. Damping (>=0)   DampMin         ....    0.0000
   Turn off err/grad.   DampErr         ....    0.1000

SCF Procedure:
 Maximum # iterations   MaxIter         ....   125
 SCF integral mode      SCFMode         .... Direct
   Integral package                     .... SHARK and LIBINT hybrid scheme
 Reset frequency        DirectResetFreq ....    20
 Integral Threshold     Thresh          ....  1.000e-10 Eh
 Primitive CutOff       TCut            ....  1.000e-11 Eh

Convergence Tolerance:
 Convergence Check Mode ConvCheckMode   .... Total+1el-Energy
 Convergence forced     ConvForced      .... 0
 Energy Change          TolE            ....  1.000e-06 Eh
 1-El. energy change                    ....  1.000e-03 Eh
 Orbital Gradient       TolG            ....  5.000e-05
 Orbital Rotation angle TolX            ....  5.000e-05
 DIIS Error             TolErr          ....  1.000e-06

------------------------------
INITIAL GUESS: MODEL POTENTIAL
------------------------------
Loading Hartree-Fock densities                     ... done
Calculating cut-offs                               ... done
Initializing the effective Hamiltonian             ... done
Setting up the integral package (SHARK)            ... done
Starting the Coulomb interaction                   ... done (   0.1 sec)
Making the grid                                    ... done (   1.0 sec)
Mapping shells                                     ... done
Starting the XC term evaluation                    ... done (   0.0 sec)
  promolecular density results
     # of electrons  =    157.981573077
     EX              =   -126.957731709
     EC              =      0.206558891
     EX+EC           =   -126.751172818
Transforming the Hamiltonian                       ... done (   0.0 sec)
Diagonalizing the Hamiltonian                      ... done (   0.0 sec)
Back transforming the eigenvectors                 ... done (   0.0 sec)
Now organizing SCF variables                       ... done
                      ------------------
                      INITIAL GUESS DONE (   1.4 sec)
                      ------------------
             **** ENERGY FILE WAS UPDATED (compas3D_hc_c24h14_0pent_14_dz_rijk.en.tmp) ****
Finished Guess after  16.0 sec
Maximum memory used throughout the entire GUESS-calculation: 32.8 MB


           ************************************************************
           *        Program running with 104 parallel MPI-processes   *
           *              working on a common directory               *
           ************************************************************

-------------------------------------------------------------------------------------------
                                      ORCA LEAN-SCF
                              memory conserving SCF solver
-------------------------------------------------------------------------------------------

----------------------------------------D-I-I-S--------------------------------------------
Iteration    Energy (Eh)           Delta-E    RMSDP     MaxDP     DIISErr   Damp  Time(sec)
-------------------------------------------------------------------------------------------
    1    -918.1538413171756474     0.00e+00  3.94e-03  1.05e-01  1.17e-01  0.700   2.4
    2    -917.9856493166721521     1.68e-01  3.32e-03  8.52e-02  1.07e-01  0.700   5.1
                               ***Turning on AO-DIIS***
    3    -918.0660187296116419    -8.04e-02  2.40e-03  6.28e-02  6.41e-02  0.700   2.1
    4    -918.2382837673385438    -1.72e-01  4.70e-03  1.31e-01  2.93e-02  0.000   2.1
    5    -918.5405946244018196    -3.02e-01  5.03e-04  1.12e-02  2.93e-02  0.000   2.1
    6    -918.5511265559584899    -1.05e-02  3.10e-04  6.40e-03  1.53e-02  0.000   2.3
    7    -918.5542966072803210    -3.17e-03  1.49e-04  3.63e-03  5.36e-03  0.000   2.1
                              *** Initializing SOSCF ***
---------------------------------------S-O-S-C-F--------------------------------------
Iteration    Energy (Eh)           Delta-E    RMSDP     MaxDP     MaxGrad    Time(sec)
--------------------------------------------------------------------------------------
    8    -918.5547918917800416    -4.95e-04  5.01e-05  1.38e-03  1.43e-03     2.2
    9    -918.5548354280535932    -4.35e-05  2.38e-05  5.26e-04  1.90e-04     2.3
   10    -918.5548391318820904    -3.70e-06  1.69e-05  3.56e-04  1.80e-04     2.2
   11    -918.5548402323856862    -1.10e-06  7.13e-06  1.78e-04  7.19e-05     2.1
   12    -918.5548405217441541    -2.89e-07  2.35e-06  4.54e-05  1.07e-05     2.0
                 **** Energy Check signals convergence ****

               *****************************************************
               *                     SUCCESS                       *
               *           SCF CONVERGED AFTER  12 CYCLES          *
               *****************************************************

             **** ENERGY FILE WAS UPDATED (compas3D_hc_c24h14_0pent_14_dz_rijk.en.tmp) ****

----------------
TOTAL SCF ENERGY
----------------

Total Energy       :       -918.55484052174415 Eh          -24995.14794 eV

Components:
Nuclear Repulsion  :       1799.47125257518928 Eh           48966.10217 eV
Electronic Energy  :      -2718.02609309693344 Eh          -73961.25011 eV
One Electron Energy:      -4817.53566604123080 Eh         -131091.81005 eV
Two Electron Energy:       2099.50957294429736 Eh           57130.55994 eV

Virial components:
Potential Energy   :      -1830.27061833797688 Eh          -49804.19552 eV
Kinetic Energy     :        911.71577781623284 Eh           24809.04758 eV
Virial Ratio       :          2.00750131002657

DFT components:
N(Alpha)           :       79.000009933118 electrons
N(Beta)            :       79.000009933118 electrons
N(Total)           :      158.000019866237 electrons
E(X)               :      -39.924624816518 Eh       
E(C)               :       -2.354697857547 Eh       
E(XC)              :      -42.279322674065 Eh       

---------------
SCF CONVERGENCE
---------------

  Last Energy change         ...    2.8936e-07  Tolerance :   1.0000e-06
  Last MAX-Density change    ...    4.5362e-05  Tolerance :   1.0000e-05
  Last RMS-Density change    ...    2.3530e-06  Tolerance :   1.0000e-06
  Last DIIS Error            ...    1.4267e-03  Tolerance :   1.0000e-06
  Last Orbital Gradient      ...    1.0697e-05  Tolerance :   5.0000e-05
  Last Orbital Rotation      ...    2.8282e-05  Tolerance :   5.0000e-05


----------------
ORBITAL ENERGIES
----------------

  NO   OCC          E(Eh)            E(eV) 
   0   2.0000     -10.843285      -295.0608 
   1   2.0000     -10.843067      -295.0549 
   2   2.0000     -10.842787      -295.0472 
   3   2.0000     -10.842619      -295.0427 
   4   2.0000     -10.842421      -295.0373 
   5   2.0000     -10.841982      -295.0253 
   6   2.0000     -10.839951      -294.9701 
   7   2.0000     -10.839886      -294.9683 
   8   2.0000     -10.837942      -294.9154 
   9   2.0000     -10.837001      -294.8898 
  10   2.0000     -10.832463      -294.7663 
  11   2.0000     -10.832213      -294.7595 
  12   2.0000     -10.832113      -294.7568 
  13   2.0000     -10.831897      -294.7509 
  14   2.0000     -10.831830      -294.7491 
  15   2.0000     -10.831452      -294.7388 
  16   2.0000     -10.831097      -294.7291 
  17   2.0000     -10.830870      -294.7230 
  18   2.0000     -10.830863      -294.7228 
  19   2.0000     -10.830808      -294.7213 
  20   2.0000     -10.830670      -294.7175 
  21   2.0000     -10.830580      -294.7151 
  22   2.0000     -10.830461      -294.7118 
  23   2.0000     -10.830194      -294.7046 
  24   2.0000      -1.083893       -29.4942 
  25   2.0000      -1.059626       -28.8339 
  26   2.0000      -1.033217       -28.1153 
  27   2.0000      -1.010697       -27.5025 
  28   2.0000      -0.987743       -26.8779 
  29   2.0000      -0.967132       -26.3170 
  30   2.0000      -0.935072       -25.4446 
  31   2.0000      -0.913897       -24.8684 
  32   2.0000      -0.910047       -24.7636 
  33   2.0000      -0.902472       -24.5575 
  34   2.0000      -0.881801       -23.9950 
  35   2.0000      -0.851238       -23.1634 
  36   2.0000      -0.787014       -21.4157 
  37   2.0000      -0.783932       -21.3319 
  38   2.0000      -0.772334       -21.0163 
  39   2.0000      -0.755434       -20.5564 
  40   2.0000      -0.737214       -20.0606 
  41   2.0000      -0.726590       -19.7715 
  42   2.0000      -0.689023       -18.7493 
  43   2.0000      -0.661969       -18.0131 
  44   2.0000      -0.661441       -17.9987 
  45   2.0000      -0.633608       -17.2413 
  46   2.0000      -0.623646       -16.9703 
  47   2.0000      -0.614906       -16.7324 
  48   2.0000      -0.598159       -16.2767 
  49   2.0000      -0.590000       -16.0547 
  50   2.0000      -0.582147       -15.8410 
  51   2.0000      -0.561127       -15.2691 
  52   2.0000      -0.548780       -14.9331 
  53   2.0000      -0.541762       -14.7421 
  54   2.0000      -0.536477       -14.5983 
  55   2.0000      -0.533402       -14.5146 
  56   2.0000      -0.528414       -14.3789 
  57   2.0000      -0.517317       -14.0769 
  58   2.0000      -0.515465       -14.0265 
  59   2.0000      -0.511132       -13.9086 
  60   2.0000      -0.490733       -13.3535 
  61   2.0000      -0.486578       -13.2405 
  62   2.0000      -0.475081       -12.9276 
  63   2.0000      -0.471652       -12.8343 
  64   2.0000      -0.466286       -12.6883 
  65   2.0000      -0.453944       -12.3525 
  66   2.0000      -0.450545       -12.2600 
  67   2.0000      -0.437504       -11.9051 
  68   2.0000      -0.427554       -11.6343 
  69   2.0000      -0.416756       -11.3405 
  70   2.0000      -0.410927       -11.1819 
  71   2.0000      -0.400061       -10.8862 
  72   2.0000      -0.373456       -10.1623 
  73   2.0000      -0.341614        -9.2958 
  74   2.0000      -0.313034        -8.5181 
  75   2.0000      -0.305101        -8.3022 
  76   2.0000      -0.302061        -8.2195 
  77   2.0000      -0.275254        -7.4900 
  78   2.0000      -0.228136        -6.2079 
  79   0.0000      -0.009955        -0.2709 
  80   0.0000       0.028992         0.7889 
  81   0.0000       0.056362         1.5337 
  82   0.0000       0.065384         1.7792 
  83   0.0000       0.072916         1.9842 
  84   0.0000       0.099726         2.7137 
  85   0.0000       0.132453         3.6042 
  86   0.0000       0.140982         3.8363 
  87   0.0000       0.142454         3.8764 
  88   0.0000       0.143584         3.9071 
  89   0.0000       0.157883         4.2962 
*Only the first 10 virtual orbitals were printed.
-------
TIMINGS
-------

Total SCF time: 0 days 0 hours 0 min 43 sec 

Total time                  ....      43.918 sec
Sum of individual times     ....      43.682 sec  ( 99.5%)

SCF preparation             ....      14.667 sec  ( 33.4%)
Fock matrix formation       ....      23.496 sec  ( 53.5%)
  Startup                   ....       1.229 sec  (  5.2% of F)
  RI-JK                     ....      12.857 sec  ( 54.7% of F)
  XC integration            ....       7.227 sec  ( 30.8% of F)
    XC Preparation          ....       0.000 sec  (  0.0% of XC)
    Basis function eval.    ....       0.307 sec  (  4.3% of XC)
    Density eval.           ....       0.208 sec  (  2.9% of XC)
    XC-Functional eval.     ....       0.044 sec  (  0.6% of XC)
    XC-Potential eval.      ....       0.276 sec  (  3.8% of XC)
Diagonalization             ....       0.000 sec  (  0.0%)
Density matrix formation    ....       1.538 sec  (  3.5%)
Total Energy calculation    ....       0.814 sec  (  1.9%)
Population analysis         ....       0.000 sec  (  0.0%)
Orbital Transformation      ....       0.307 sec  (  0.7%)
Orbital Orthonormalization  ....       0.000 sec  (  0.0%)
DIIS solution               ....       2.124 sec  (  4.8%)
SOSCF solution              ....       0.694 sec  (  1.6%)
Finished LeanSCF after  44.2 sec

Maximum memory used throughout the entire LEANSCF-calculation: 98.5 MB


           ************************************************************
           *        Program running with 104 parallel MPI-processes   *
           *              working on a common directory               *
           ************************************************************

------------------------------------------------------------------------------
                                ORCA  MP2 
------------------------------------------------------------------------------


-------------
RI-MP2 ENERGY
-------------
Dimension of the orbital basis            ...  406
Dimension of the AuxC basis               ... 1348
Memory devoted to MP2                     ... 4096 MB   
Data format for matrix containers         ... DOUBLE
Compression type for matrix containers    ... UNCOMPRESSED
Scaling for aa/bb pairs                   ...   5.710e-02
Scaling for ab pairs                      ...   5.979e-01
Overall scaling of the MP2 energy         ...   1.000e+00

-----------------------
SHARK RI TRANSFORMATION
-----------------------

Number of basis functions                ...    406
Number of aux functions                  ...   1348
Number of operators                      ...      1
Generation of IJK                        ... NO
Generation of IAK                        ... YES
Generation of ABK                        ... NO
Orbital Range Operator  0:    0-  78 to   79- 405

Aux basis identifier                     ...   AUXC
Contraction scheme used                  ... SEGMENTED
Do orthogonalization                     ... YES
All operator combinations                ... NO
Transpose (ia|K)                         ... NO
Integral generator used                  ... LIBINT
Starting integral generation + trafo... 
Half trafo (segmented) done. Total time =  0.4 sec. integrals=  0.1 sec trafo=  0.0 sec
Integral generation and half transformation done (  0.4 sec)

Reading or making V^(-1/2)          ... done (  0.1 sec)
Sorting IAK integrals               ... done (  1.3 sec)

SHARK RI integral transformation done. Total time =  1.8 sec.

Opening buffers                              ... done

Starting loop over batches of integrals:

Operator 0  - window                       ... (  0- 78)x( 79-405)
Operator 0  - Memory available             ...  4096 MB
Operator 0  - Memory needed per MO         ...   3.4 MB
Operator 0  - Number of orbitals per batch ... 1
Operator 0  - Number of batches            ... 1

OPERATOR  0   PASS   0:  MOs     0 ...    0 +    1 ...    1 +    2 ...    2 +    3 ...    3
                            +    4 ...    4 +    5 ...    5 +    6 ...    6 +    7 ...    7
                            +    8 ...    8 +    9 ...    9 +   10 ...   10 +   11 ...   11
                            +   12 ...   12 +   13 ...   13 +   14 ...   14 +   15 ...   15
                            +   16 ...   16 +   17 ...   17 +   18 ...   18 +   19 ...   19
                            +   20 ...   20 +   21 ...   21 +   22 ...   22 +   23 ...   23
                            +   24 ...   24 +   25 ...   25 +   26 ...   26 +   27 ...   27
                            +   28 ...   28 +   29 ...   29 +   30 ...   30 +   31 ...   31
                            +   32 ...   32 +   33 ...   33 +   34 ...   34 +   35 ...   35
                            +   36 ...   36 +   37 ...   37 +   38 ...   38 +   39 ...   39
                            +   40 ...   40 +   41 ...   41 +   42 ...   42 +   43 ...   43
                            +   44 ...   44 +   45 ...   45 +   46 ...   46 +   47 ...   47
                            +   48 ...   48 +   49 ...   49 +   50 ...   50 +   51 ...   51
                            +   52 ...   52 +   53 ...   53 +   54 ...   54 +   55 ...   55
                            +   56 ...   56 +   57 ...   57 +   58 ...   58 +   59 ...   59
                            +   60 ...   60 +   61 ...   61 +   62 ...   62 +   63 ...   63
                            +   64 ...   64 +   65 ...   65 +   66 ...   66 +   67 ...   67
                            +   68 ...   68 +   69 ...   69 +   70 ...   70 +   71 ...   71
                            +   72 ...   72 +   73 ...   73 +   74 ...   74 +   75 ...   75
                            +   76 ...   76 +   77 ...   77 +   78 ...   78
  Reading integrals       ... ok
Time spent in pair loops =     0.780 sec

-----------------------------------------------
 RI-MP2 CORRELATION ENERGY:     -1.609543916 Eh
-----------------------------------------------


-------
TIMINGS
-------

Total time                :    3.134 sec
Integral trafo            :    1.878 sec ( 59.9%)
I/O of integrals          :    0.001 sec (  0.0%)
K(i,j) operators          :    0.008 sec (  0.3%)
T(i,j) pair energies      :    0.001 sec (  0.0%)
V**(-1/2)                 :    0.473 sec ( 15.1%)


---------------------------------------
MP2 TOTAL ENERGY:     -920.164384437 Eh
---------------------------------------

Maximum memory used throughout the entire MP2-calculation: 40.1 MB


-------------------------------------------------------------------------------
                          DFT DISPERSION CORRECTION                            
                                                                               
                                DFTD4 V3.4.0                                   
-------------------------------------------------------------------------------
The REV-DSD-PBEP86-2021 functional is recognized
A user input s6-coefficient scaling factor has been recognized
A user input a1-coefficient scaling factor has been recognized
A user input s8-coefficient scaling factor has been recognized
A user input a2-coefficient scaling factor has been recognized
A user input s9-coefficient scaling factor has been recognized
Active option DFTDOPT                   ...         5   

-------------------------   ----------------
Dispersion correction           -0.038183443
-------------------------   ----------------


-------------------------   --------------------
FINAL SINGLE POINT ENERGY      -920.202567880234
-------------------------   --------------------



           ************************************************************
           *        Program running with 104 parallel MPI-processes   *
           *              working on a common directory               *
           ************************************************************

------------------------------------------------------------------------------
                              ORCA PROPERTY CALCULATIONS
------------------------------------------------------------------------------

GBWName                                 ... compas3D_hc_c24h14_0pent_14_dz_rijk.gbw
Number of atoms                         ...     38
Number of basis functions               ...    406
Max core memory                         ...   1024 MB

Electric properties:
Dipole moment                           ... YES
Quadrupole moment                       ...  NO
Static polarizability (Dipole/Dipole)   ...  NO
Static polarizability (Dipole/Quad.)    ...  NO
Static polarizability (Quad./Quad.)     ...  NO
Static polarizability (Velocity)        ...  NO

Atomic electric properties:
Dipole moment                           ...  NO
Quadrupole moment                       ...  NO
Static polarizability                   ...  NO

Choice of electric origin               ... Center of mass
Position of electric origin             ...    -0.040777     0.065998    -0.000007

General magnetic properties:
Magnetizability                         ...  NO

EPR properties:
g-Tensor (aka g-matrix)                 ...  NO
Zero-Field splitting spin-orbit         ...  NO
Zero-field splitting spin-spin          ...  NO
Hyperfine couplings                     ...  NO (   0 nuclei)
Quadrupole couplings                    ...  NO (   0 nuclei)
Contact density                         ...  NO (   0 nuclei)

NMR properties:
Chemical shifts                         ...  NO (   0 nuclei)
Spin-rotation constants                 ...  NO (   0 nuclei)
Spin-spin couplings                     ...  NO (   0 nuclei,    0 pairs)

Choice of magnetic origin               ... GIAO
Position of magnetic origin             ...     0.000000     0.000000     0.000000

Properties with geometric perturbations:
SCF Hessian                             ...  NO
IR spectrum                             ...  NO
VCD spectrum                            ...  NO
X-ray spectroscopy properties:
SCF XES/XAS/RIXS spectra                ...  NO


-------------
DIPOLE MOMENT
-------------

Method             : SCF
Type of density    : Electron Density
Multiplicity       :   1
Irrep              :   0
Energy             :  -918.5548405217441541 Eh
Relativity type    : 
Basis              : AO
                                X                 Y                 Z
Electronic contribution:     -0.848079749       1.339081043       0.001010587
Nuclear contribution   :      0.839764988      -1.360180845      -0.000871163
                        -----------------------------------------
Total Dipole Moment    :     -0.008314761      -0.021099802       0.000139423
                        -----------------------------------------
Magnitude (a.u.)       :      0.022679426
Magnitude (Debye)      :      0.057646519



--------------------
Rotational spectrum 
--------------------
 
Rotational constants in cm-1:             0.016727             0.006128             0.004485 
Rotational constants in MHz :           501.462504           183.726705           134.462668 

Dipole components along the rotational axes: 
x,y,z [a.u.] :    -0.017887    -0.013943     0.000097 
x,y,z [Debye]:    -0.045465    -0.035439     0.000246 

 

Dipole moment calculation done in   0.1 sec 

Maximum memory used throughout the entire PROP-calculation: 24.6 MB

--------------------------------
SUGGESTED CITATIONS FOR THIS RUN
--------------------------------

Below you find a list of papers that are relevant to this ORCA run
We neither can nor want to force you to cite these papers, but we appreciate if you do
You receive ORCA, which is the product of decades of hard work by many enthusiastic individuals, for free
The only thing we kindly ask in return is that you cite our papers,
We deeply appreciate it, if you show your appreciation for ORCA by not just citing the generic ORCA reference.

Please note that relegating all ORCA citations to the supporting information does *not* help us.
SI sections are not indexed - citations you put there will not count into any citation statistics
But we need these citations in order to attract the funding resources that allow us to do what we are doing

Therefore, if you are a happy ORCA user, please consider citing a few of the papers listed below in the main body of your paper

In addition to the list printed below, the program has created the file compas3D_hc_c24h14_0pent_14_dz_rijk.bibtex that contains the list in bibtex format
You can import this file easily into all common literature databanks and citation aid programs


List of essential papers. We consider these as the minimum necessary citations

  1. Neese,F.
     Software update: the ORCA program system, version 5.0
     WIRES Comput. Molec. Sci., 2022 12(1)e1606
     doi.org/10.1002/wcms.1606

List of papers to cite with high priority. The work reported in these papers was absolutely
necessary for this run to complete.
Our perspective: the developers of density functionals and basis sets usually get cited in chemistry papers
Good! But without the algorithms to do something with them, the functionals or basis sets would not do anything.
Hence, in our opinion, the algorithm design and method developments papers are equally worthy of getting cited

  1. Neese,F.
     An improvement of the resolution of the identity approximation for the formation of the Coulomb matrix
     J. Comp. Chem., 2003 24(14)1740-1747
     doi.org/10.1002/jcc.10318
  2. Kossmann,S.; Neese,F.
     Comparison of two efficient approximate Hartee-Fock approaches
     Chem. Phys. Lett., 2009 481 240-243
     doi.org/10.1016/j.cplett.2009.09.073
  3. Neese,F.
     The SHARK Integral Generation and Digestion System
     J. Comp. Chem., 2022  1-16
     doi.org/10.1002/jcc.26942
  4. Caldeweyher,E.; Bannwarth,C.; Grimme,S.
     Extension of the D3 dispersion coefficient model
     J. Chem. Phys., 2017 147 034112
     doi.org/10.1063/1.4993215
  5. Caldeweyher,E.; Ehlert,S.; Hansen,A.; Neugebauer,H.; Spicher,S.; Bannwarth,C.; Grimme,S.
     A generally applicable atomic-charge dependent London dispersion correction
     J. Chem. Phys., 2019 150 154122
     doi.org/10.1063/1.5090222
  6. Caldeweyher,E.; Mewes,J.; Ehlert,S.; Grimme,S.
     Extension and evaluation of the D4 London-dispersion model for periodic systems
     Phys. Chem. Chem. Phys., 2020 22(16)8499-8512
     doi.org/10.1039/D0CP00502A
  7. Wittmann,L.; Gordiy,I.; Friede,M.; Helmich-Paris,B.; Grimme,S.; Hansen,A.; Bursch,M.
     Extension of the D3 and D4 London Dispersion Corrections to the full Actinides Series
     Phys. Chem. Chem. Phys., 2024 26(32)21379-21394
     doi.org/https://doi.org/10.1039/D4CP01514B 

List of suggested additional citations. These are papers that are important in the 'surrounding' of 
of this run, or papers that preceded the highly important papers. If you like your results we are grateful for a citation.

  1. Neese,F.
     The ORCA program system
     WIRES Comput. Molec. Sci., 2012 2(1)73-78
     doi.org/10.1002/wcms.81
  2. Neese,F.
     Software update: the ORCA program system, version 4.0
     WIRES Comput. Molec. Sci., 2018 8(1)1-6
     doi.org/10.1002/wcms.1327
  3. Neese,F.; Wennmohs,F.; Becker,U.; Riplinger,C.
     The ORCA quantum chemistry program package
     J. Chem. Phys., 2020 152 Art. No. L224108
     doi.org/10.1063/5.0004608

List of optional additional citations

  1. Neese,F.
     Approximate second-order SCF convergence for spin unrestricted wavefunctions
     Chem. Phys. Lett., 2000 325(1-3)93-98
     doi.org/10.1016/s0009-2614(00)00662-x

Timings for individual modules:

Sum of individual times          ...      126.540 sec (=   2.109 min)
Startup calculation              ...       27.648 sec (=   0.461 min)  21.8 %
SCF iterations                   ...       63.302 sec (=   1.055 min)  50.0 %
Property calculations            ...       16.054 sec (=   0.268 min)  12.7 %
MP2 module                       ...       19.536 sec (=   0.326 min)  15.4 %
                             ****ORCA TERMINATED NORMALLY****
TOTAL RUN TIME: 0 days 0 hours 2 minutes 46 seconds 286 msec
