
                                 *****************
                                 * O   R   C   A *
                                 *****************

                                            #,                                       
                                            ###                                      
                                            ####                                     
                                            #####                                    
                                            ######                                   
                                           ########,                                 
                                     ,,################,,,,,                         
                               ,,#################################,,                 
                          ,,##########################################,,             
                       ,#########################################, ''#####,          
                    ,#############################################,,   '####,        
                  ,##################################################,,,,####,       
                ,###########''''           ''''###############################       
              ,#####''   ,,,,##########,,,,          '''####'''          '####       
            ,##' ,,,,###########################,,,                        '##       
           ' ,,###''''                  '''############,,,                           
         ,,##''                                '''############,,,,        ,,,,,,###''
      ,#''                                            '''#######################'''  
     '                                                          ''''####''''         
             ,#######,   #######,   ,#######,      ##                                
            ,#'     '#,  ##    ##  ,#'     '#,    #''#        ,####,   ,####,        
            ##       ##  ##   ,#'  ##            #'  '#       #'       #'  '#        
            ##       ##  #######   ##           ,######,      #####,   #    #        
            '#,     ,#'  ##    ##  '#,     ,#' ,#      #,     #,   #   #,  ,#        
             '#######'   ##     ##  '#######'  #'      '#     '####' # '####'        



                #########################################################
                #                        -***-                          #
                #          Department of theory and spectroscopy        #
                #                                                       #
                #                      Frank Neese                      #
                #                                                       #
                #     Directorship, Architecture, Infrastructure        #
                #                    SHARK, DRIVERS                     #
                #        Core code/Algorithms in most modules           #
                #                                                       #
                #        Max Planck Institute fuer Kohlenforschung      #
                #                Kaiser Wilhelm Platz 1                 #
                #                 D-45470 Muelheim/Ruhr                 #
                #                      Germany                          #
                #                                                       #
                #                  All rights reserved                  #
                #                        -***-                          #
                #########################################################


                         Program Version 6.0.1  -  RELEASE   -


 With contributions from (in alphabetic order):
[Max-Planck-Institut fuer Kohlenforschung]                               
  Daniel Aravena         : Magnetic Suceptibility                        
  Michael Atanasov       : Ab Initio Ligand Field Theory (pilot matlab implementation)
  Alexander A. Auer      : GIAO ZORA, VPT2 properties, NMR spectrum      
  Ute Becker             : All parallelization in ORCA, NUMFREQ, NUMCALC 
  Giovanni Bistoni       : ED, misc. LED, open-shell LED, HFLD           
  Martin Brehm           : Molecular dynamics                            
  Dmytro Bykov           : pre 5.0 version of the SCF Hessian            
  Marcos Casanova-Páez   : Triplet and SCS-CIS(D). UHF-(DLPNO)-IP/EA/STEOM-CCSD. UHF-CVS-IP/STEOM-CCSD   
  Vijay G. Chilkuri      : MRCI spin determinant printing, contributions to CSF-ICE 
  Pauline Colinet        : FMM embedding                                 
  Dipayan Datta          : RHF DLPNO-CCSD density                        
  Achintya Kumar Dutta   : EOM-CC, STEOM-CC                              
  Nicolas Foglia         : Exact transition moments, OPA infrastructure, MCD improvements    
  Dmitry Ganyushin       : Spin-Orbit,Spin-Spin,Magnetic field MRCI      
  Miquel Garcia-Rates    : C-PCM and meta-GGA Hessian, CCSD/C-PCM, Gaussian charge scheme 
  Tiago L. C. Gouveia    : GS-ROHF, GS-ROCIS                             
  Yang Guo               : DLPNO-NEVPT2, F12-NEVPT2, CIM, IAO-localization        
  Andreas Hansen         : Spin unrestricted coupled pair/coupled cluster methods 
  Ingolf Harden          : AUTO-CI MPn and infrastructure                
  Benjamin Helmich-Paris : MC-RPA, TRAH-(SCF,CASSCF), AVAS, COSX integrals, SCF dyn. polar. 
  Lee Huntington         : MR-EOM, pCC                                   
  Robert Izsak           : Overlap fitted RIJCOSX, COSX-SCS-MP3, EOM     
  Riya Kayal             : Wick's Theorem for AUTO-CI, AUTO-CI UHF-CCSDT 
  Emily Kempfer          : AUTO-CI, RHF CISDT and CCSDT                  
  Christian Kollmar      : KDIIS, OOCD, Brueckner-CCSD(T), CCSD density, CASPT2, CASPT2-K, improved NEVPT2 
  Axel Koslowski         : Symmetry handling                             
  Simone Kossmann        : meta-GGA functionals, TD-DFT gradient, OOMP2, (MP2 Hessian; deprecated post 5.0) 
  Lucas Lang             : DCDCAS                                        
  Marvin Lechner         : AUTO-CI (C++ implementation), FIC-MRCC        
  Spencer Leger          : CASSCF response                               
  Dagmar Lenk            : GEPOL surface, SMD, ORCA-2-JSON               
  Dimitrios Liakos       : Extrapolation schemes; Compound Job, initial MDCI parallelization 
  Dimitrios Manganas     : Further ROCIS development; embedding schemes. LFT, Crystal Embedding 
  Dimitrios Pantazis     : SARC Basis sets                               
  Anastasios Papadopoulos: AUTO-CI, single reference methods and gradients 
  Taras Petrenko         : pre 6.0 DFT Hessian and TD-DFT gradient, (ASA, deprecated), ECA, 1-Electron XAS/XES, NRVS 
  Peter Pinski           : DLPNO-MP2, DLPNO-MP2 Gradient                 
  Christoph Reimann      : Effective Core Potentials                     
  Marius Retegan         : Local ZFS, SOC                                
  Christoph Riplinger    : Optimizer, TS searches, QM/MM, DLPNO-CCSD(T), (RO)-DLPNO pert. Triples 
  Michael Roemelt        : Original ROCIS implementation                 
  Masaaki Saitow         : Open-shell DLPNO-CCSD energy and density      
  Barbara Sandhoefer     : DKH picture change effects                    
  Kantharuban Sivalingam : CASSCF convergence/infrastructure, NEVPT2 and variants, FIC-MRCI 
  Bernardo de Souza      : ESD, SOC TD-DFT                               
  Georgi L. Stoychev     : AutoAux, RI-MP2 NMR, DLPNO-MP2 response, X2C  
  Van Anh Tran           : RI-MP2 g-tensors                              
  Willem Van den Heuvel  : Paramagnetic NMR                              
  Zikuan Wang            : NOTCH, Electric field optimization            
  Frank Wennmohs         : Technical directorship and infrastructure     
  Hang Xu                : AUTO-CI-Response properties                   
                                                                         
[FACCTs GmbH]                                                            
  Markus Bursch, Miquel Garcia-Rates, Christoph Riplinger, Bernardo de Souza, Georgi L. Stoychev 
                                                                 
  APM, Basis sets (HGBS, AHGBS, def-TZVP (Ac-Lr), def2-XVPD (La-Lu)), CI-OPT, improved COSX, DLPNO-Multilevel,           
  DOCKER, DRACO, updates on ESD, GOAT, IRC, LR-CPCM, MBIS, meta-GGA TD-DFT gradient, ML-optimized integration grids, 
  MM, NACMEs, nearIR, NEB, NEB-TS, NL-DFT gradient (VV10), 2- and 3-layer-ONIOM, interface openCOSMO-RS, QMMM,   
  Crystal-QMMM, SF, symmetry and pop. for TD-DFT, r2SCAN hybrids, SOLVATOR                                   
                                                                         
[Other institutions]                                                     
  V. Asgeirsson          : NEB                                           
  Christoph Bannwarth    : sTDA-DFT, sTD-DFT, PBEh-3c, B97-3c, D3        
  Sebastian Ehlert       : rSCAN, r2SCAN, r2SCAN-3c, D4, dhf basis sets  
  Marvin Friede          : D4 for Fr, Ra, Ac-Lr                          
  Lars Goerigk           : TD-DFT with DH, B97 family of functionals     
  Stefan Grimme          : VdW corrections, initial TS optimization, DFT functionals, gCP, sTDA/sTD-DF 
  Waldemar Hujo          : DFT-NL                                        
  H. Jonsson             : NEB                                           
  Holger Kruse           : gCP                                           
  Marcel Mueller         : wB97X-3c, vDZP basis set                      
  Hagen Neugebauer       : wr2SCAN                                       
  Tobias Risthaus        : range-separated hybrid DFT                    
  Lukas Wittmann         : regularized MP2, r2SCAN double-hybrids, wr2SCAN        
                                                                         
We gratefully acknowledge several colleagues who have allowed us to      
interface, adapt or use parts of their codes:                            
  Ed Valeev, F. Pavosevic, A. Kumar             : LibInt (2-el integral package), F12 methods 
  Garnet Chan, S. Sharma, J. Yang, R. Olivares  : DMRG                   
  Ulf Ekstrom                                   : XCFun DFT Library      
  Mihaly Kallay                                 : mrcc  (arbitrary order and MRCC methods)
  Frank Weinhold                                : gennbo (NPA and NBO analysis)           
  Simon Mueller                                 : openCOSMO-RS                            
  Christopher J. Cramer and Donald G. Truhlar   : smd solvation model                     
  S Lehtola, MJT Oliveira, MAL Marques          : LibXC Library                           
  Liviu Ungur et al                             : ANISO software                          


 Your calculation uses the libint2 library for the computation of 2-el integrals
 For citations please refer to: http://libint.valeyev.net

 Your ORCA version has been built with support for libXC version: 6.2.2
 For citations please refer to: https://libxc.gitlab.io

 This ORCA versions uses:
   CBLAS   interface :  Fast vector & matrix operations
   LAPACKE interface :  Fast linear algebra routines
   SCALAPACK package :  Parallel linear algebra routines
   Shared memory     :  Shared parallel matrices
   BLAS/LAPACK       :  OpenBLAS 0.3.27  USE64BITINT DYNAMIC_ARCH NO_AFFINITY SapphireRapids SINGLE_THREADED
        Core in use  :  SapphireRapids
   Copyright (c) 2011-2014, The OpenBLAS Project




***************************************
The coordinates will be read from file: /scratch/kx58/rs2200/dhdft/inputs/compas3D-xyzs/hc_c24h14_0pent_11.xyz
***************************************


Your calculation utilizes the atom-pairwise dispersion correction
based on EEQ partial charges (D4)


================================================================================

----- Orbital basis set information -----
Your calculation utilizes the basis: def2-TZVP
   F. Weigend and R. Ahlrichs, Phys. Chem. Chem. Phys. 7, 3297 (2005).

================================================================================
                                        WARNINGS
                       Please study these warnings very carefully!
================================================================================


WARNING: No MP2 level density has been requested!
         To calculate MP2 level properties use
         %mp2 Density relaxed end
         or
         %mp2 Density unrelaxed end
         Otherwise for double-hybrid DFT only the energy is correct!

================================================================================
                                       INPUT FILE
================================================================================
NAME = compas3D_hc_c24h14_0pent_11_tz_nori.inp
|  1> ! RKS revDSD-PBEP86-D4/2021 defgrid3  NORI NOPOP NoFrozencore NoUseSym
|  2> 
|  3> %basis
|  4> Basis "def2-TZVP"
|  5> 
|  6> 
|  7> end
|  8> 
|  9> %method
| 10> ScalHFX 0.69
| 11> ScalDFX 0.31
| 12> ScalDFC 0.4038
| 13> ScalLDAC 0.4038
| 14> 
| 15> D4S6 0.4612
| 16> D4S8 0.0
| 17> D4A1 0.44
| 18> D4A2 3.60
| 19> end
| 20> 
| 21> %mp2
| 22> PS 0.5979
| 23> PT 0.0571
| 24> end
| 25> 
| 26> %pal
| 27> nprocs 104
| 28> end
| 29> 
| 30> *XYZFILE 0 1 /scratch/kx58/rs2200/dhdft/inputs/compas3D-xyzs/hc_c24h14_0pent_11.xyz
| 31> 
| 32>                          ****END OF INPUT****
================================================================================

                       ****************************
                       * Single Point Calculation *
                       ****************************

---------------------------------
CARTESIAN COORDINATES (ANGSTROEM)
---------------------------------
  C      2.383725   -0.953868   -0.128513
  C      1.535362   -2.096395   -0.010961
  C      0.123135   -1.934158    0.101768
  C     -0.456781   -0.575447    0.029882
  C      0.456850    0.575472    0.031381
  C      1.791793    0.362742   -0.079576
  C      3.750953   -1.127965   -0.257397
  C      4.319825   -2.416424   -0.265532
  C      3.523214   -3.526095   -0.133561
  C      2.114369   -3.395382    0.001980
  C      1.270851   -4.521602    0.154744
  C     -0.085045   -4.353988    0.297747
  C     -0.654400   -3.068919    0.274793
  C     -1.791520   -0.362586   -0.083208
  C     -2.383370    0.954075   -0.131610
  C     -1.535233    2.096466   -0.011148
  C     -0.123202    1.934099    0.103874
  C     -3.750366    1.128317   -0.262733
  C     -4.319241    2.416777   -0.270258
  C     -3.522884    3.526292   -0.135477
  C     -2.114278    3.395429    0.002376
  C     -1.271046    4.521470    0.158000
  C      0.084600    4.353695    0.303160
  C      0.654016    3.068660    0.279623
  H      2.478958    1.206749   -0.145362
  H      4.393577   -0.249138   -0.346699
  H      5.400999   -2.527752   -0.369505
  H      3.960469   -4.526858   -0.128623
  H      1.714960   -5.519285    0.167280
  H     -0.733295   -5.221994    0.433464
  H     -1.732630   -2.978291    0.405513
  H     -2.478575   -1.206505   -0.151227
  H     -4.392824    0.249599   -0.354282
  H     -5.400232    2.528221   -0.375996
  H     -3.960164    4.527043   -0.130046
  H     -1.715190    5.519131    0.170976
  H      0.732600    5.221542    0.441067
  H      1.732019    2.977876    0.412086

----------------------------
CARTESIAN COORDINATES (A.U.)
----------------------------
  NO LB      ZA    FRAG     MASS         X           Y           Z
   0 C     6.0000    0    12.011    4.504587   -1.802549   -0.242855
   1 C     6.0000    0    12.011    2.901414   -3.961613   -0.020714
   2 C     6.0000    0    12.011    0.232691   -3.655029    0.192314
   3 C     6.0000    0    12.011   -0.863191   -1.087438    0.056469
   4 C     6.0000    0    12.011    0.863322    1.087484    0.059301
   5 C     6.0000    0    12.011    3.385998    0.685482   -0.150376
   6 C     6.0000    0    12.011    7.088274   -2.131545   -0.486410
   7 C     6.0000    0    12.011    8.163286   -4.566380   -0.501783
   8 C     6.0000    0    12.011    6.657909   -6.663353   -0.252394
   9 C     6.0000    0    12.011    3.995578   -6.416342    0.003742
  10 C     6.0000    0    12.011    2.401561   -8.544590    0.292423
  11 C     6.0000    0    12.011   -0.160711   -8.227845    0.562661
  12 C     6.0000    0    12.011   -1.236638   -5.799417    0.519284
  13 C     6.0000    0    12.011   -3.385482   -0.685188   -0.157240
  14 C     6.0000    0    12.011   -4.503916    1.802941   -0.248706
  15 C     6.0000    0    12.011   -2.901169    3.961746   -0.021067
  16 C     6.0000    0    12.011   -0.232817    3.654917    0.196293
  17 C     6.0000    0    12.011   -7.087165    2.132209   -0.496494
  18 C     6.0000    0    12.011   -8.162183    4.567046   -0.510713
  19 C     6.0000    0    12.011   -6.657286    6.663727   -0.256014
  20 C     6.0000    0    12.011   -3.995407    6.416430    0.004490
  21 C     6.0000    0    12.011   -2.401929    8.544340    0.298577
  22 C     6.0000    0    12.011    0.159871    8.227290    0.572890
  23 C     6.0000    0    12.011    1.235911    5.798926    0.528410
  24 H     1.0000    0     1.008    4.684552    2.280426   -0.274694
  25 H     1.0000    0     1.008    8.302657   -0.470802   -0.655165
  26 H     1.0000    0     1.008   10.206409   -4.776759   -0.698263
  27 H     1.0000    0     1.008    7.484202   -8.554523   -0.243063
  28 H     1.0000    0     1.008    3.240805  -10.429936    0.316113
  29 H     1.0000    0     1.008   -1.385727   -9.868138    0.819127
  30 H     1.0000    0     1.008   -3.274196   -5.628154    0.766309
  31 H     1.0000    0     1.008   -4.683829   -2.279964   -0.285777
  32 H     1.0000    0     1.008   -8.301234    0.471673   -0.669495
  33 H     1.0000    0     1.008  -10.204960    4.777645   -0.710530
  34 H     1.0000    0     1.008   -7.483625    8.554871   -0.245750
  35 H     1.0000    0     1.008   -3.241239   10.429646    0.323099
  36 H     1.0000    0     1.008    1.384413    9.867284    0.833495
  37 H     1.0000    0     1.008    3.273042    5.627371    0.778730

--------------------------------
INTERNAL COORDINATES (ANGSTROEM)
--------------------------------
 C      0   0   0     0.000000000000     0.00000000     0.00000000
 C      1   0   0     1.427902869732     0.00000000     0.00000000
 C      2   1   0     1.425978882933   120.25677709     0.00000000
 C      3   2   1     1.479042011376   119.27365655     2.93065244
 C      4   3   2     1.469468631106   118.40315737   351.64821439
 C      5   4   3     1.356332647828   119.27566476     8.61337416
 C      1   2   3     1.384280948575   119.59365376   180.96832166
 C      7   1   2     1.408477418369   120.96434536   359.57770183
 C      8   7   1     1.372360908973   120.31029443   359.44355213
 C      9   8   7     1.421373116331   120.67464963     0.52320847
 C     10   9   8     1.415355185197   121.85959776   180.72492608
 C     11  10   9     1.373680470085   120.15919046   179.27932855
 C      3   2   1     1.386427200376   118.17437577   182.88427384
 C      4   3   2     1.356328863151   122.28092614   169.32345977
 C     14   4   3     1.444377063217   123.30495889   178.87873235
 C     15  14   4     1.427902050180   118.88747211   357.86348737
 C     16  15  14     1.425981852038   120.25650961     2.34243554
 C     15  14   4     1.384280651157   121.50418607   179.26288309
 C     18  15  14     1.408475905080   120.96423049   178.16551861
 C     19  18  15     1.372361297583   120.31046563   359.44508695
 C     20  19  18     1.421372255851   120.67452060     0.52440419
 C     21  20  19     1.415354170067   121.85953235   180.72240739
 C     22  21  20     1.373679925354   120.15907797   179.28013738
 C     17  16  15     1.386427972702   118.17410523   182.88185565
 H      6   5   4     1.090354104859   120.25254686   176.02270165
 H      7   1   2     1.092372777258   119.17414169   180.00865210
 H      8   7   1     1.091852380016   119.58836651   179.93585746
 H      9   8   7     1.092128441721   120.59548678   180.65146522
 H     11  10   9     1.092135417899   119.06410811   359.90445858
 H     12  11  10     1.091824497375   120.13106096   181.09527548
 H     13   3   2     1.089898961405   120.11411345   177.48915375
 H     14   4   3     1.090353419639   120.25332527   358.36680308
 H     18  15  14     1.092372684231   119.17460704   358.59800277
 H     19  18  15     1.091852609451   119.58834071   179.93822487
 H     20  19  18     1.092128354123   120.59561068   180.65215114
 H     22  21  20     1.092135481007   119.06412448   359.90421889
 H     23  22  21     1.091824474132   120.13089965   181.09457682
 H     24  17  16     1.089898933041   120.11352663   177.49198176

---------------------------
INTERNAL COORDINATES (A.U.)
---------------------------
 C      0   0   0     0.000000000000     0.00000000     0.00000000
 C      1   0   0     2.698345369634     0.00000000     0.00000000
 C      2   1   0     2.694709561498   120.25677709     0.00000000
 C      3   2   1     2.794984342065   119.27365655     2.93065244
 C      4   3   2     2.776893275179   118.40315737   351.64821439
 C      5   4   3     2.563097250892   119.27566476     8.61337416
 C      1   2   3     2.615911885211   119.59365376   180.96832166
 C      7   1   2     2.661636586530   120.96434536   359.57770183
 C      8   7   1     2.593386274858   120.31029443   359.44355213
 C      9   8   7     2.686005923983   120.67464963     0.52320847
 C     10   9   8     2.674633682247   121.85959776   180.72492608
 C     11  10   9     2.595879883978   120.15919046   179.27932855
 C      3   2   1     2.619967713331   118.17437577   182.88427384
 C      4   3   2     2.563090098888   122.28092614   169.32345977
 C     14   4   3     2.729477083598   123.30495889   178.87873235
 C     15  14   4     2.698343820905   118.88747211   357.86348737
 C     16  15  14     2.694715172294   120.25650961     2.34243554
 C     15  14   4     2.615911323172   121.50418607   179.26288309
 C     18  15  14     2.661633726828   120.96423049   178.16551861
 C     19  18  15     2.593387009224   120.31046563   359.44508695
 C     20  19  18     2.686004297912   120.67452060     0.52440419
 C     21  20  19     2.674631763930   121.85953235   180.72240739
 C     22  21  20     2.595878854585   120.15907797   179.28013738
 C     17  16  15     2.619969172815   118.17410523   182.88185565
 H      6   5   4     2.060470647180   120.25254686   176.02270165
 H      7   1   2     2.064285385168   119.17414169   180.00865210
 H      8   7   1     2.063301976900   119.58836651   179.93585746
 H      9   8   7     2.063823657919   120.59548678   180.65146522
 H     11  10   9     2.063836840986   119.06410811   359.90445858
 H     12  11  10     2.063249286346   120.13106096   181.09527548
 H     13   3   2     2.059610550700   120.11411345   177.48915375
 H     14   4   3     2.060469352303   120.25332527   358.36680308
 H     18  15  14     2.064285209373   119.17460704   358.59800277
 H     19  18  15     2.063302410469   119.58834071   179.93822487
 H     20  19  18     2.063823492382   120.59561068   180.65215114
 H     22  21  20     2.063836960242   119.06412448   359.90421889
 H     23  22  21     2.063249242423   120.13089965   181.09457682
 H     24  17  16     2.059610497101   120.11352663   177.49198176

---------------------
BASIS SET INFORMATION
---------------------
There are 2 groups of distinct atoms

 Group   1 Type C   : 11s6p2d1f contracted to 5s3p2d1f pattern {62111/411/11/1}
 Group   2 Type H   : 5s1p contracted to 3s1p pattern {311/1}

Atom   0C    basis set group =>   1
Atom   1C    basis set group =>   1
Atom   2C    basis set group =>   1
Atom   3C    basis set group =>   1
Atom   4C    basis set group =>   1
Atom   5C    basis set group =>   1
Atom   6C    basis set group =>   1
Atom   7C    basis set group =>   1
Atom   8C    basis set group =>   1
Atom   9C    basis set group =>   1
Atom  10C    basis set group =>   1
Atom  11C    basis set group =>   1
Atom  12C    basis set group =>   1
Atom  13C    basis set group =>   1
Atom  14C    basis set group =>   1
Atom  15C    basis set group =>   1
Atom  16C    basis set group =>   1
Atom  17C    basis set group =>   1
Atom  18C    basis set group =>   1
Atom  19C    basis set group =>   1
Atom  20C    basis set group =>   1
Atom  21C    basis set group =>   1
Atom  22C    basis set group =>   1
Atom  23C    basis set group =>   1
Atom  24H    basis set group =>   2
Atom  25H    basis set group =>   2
Atom  26H    basis set group =>   2
Atom  27H    basis set group =>   2
Atom  28H    basis set group =>   2
Atom  29H    basis set group =>   2
Atom  30H    basis set group =>   2
Atom  31H    basis set group =>   2
Atom  32H    basis set group =>   2
Atom  33H    basis set group =>   2
Atom  34H    basis set group =>   2
Atom  35H    basis set group =>   2
Atom  36H    basis set group =>   2
Atom  37H    basis set group =>   2


           ************************************************************
           *        Program running with 104 parallel MPI-processes   *
           *              working on a common directory               *
           ************************************************************
------------------------------------------------------------------------------
                             ORCA STARTUP CALCULATIONS
------------------------------------------------------------------------------
------------------------------------------------------------------------------
                   ___                                                        
                  /   \      - P O W E R E D   B Y -                         
                 /     \                                                     
                 |  |  |   _    _      __       _____    __    __             
                 |  |  |  | |  | |    /  \     |  _  \  |  |  /  |          
                  \  \/   | |  | |   /    \    | | | |  |  | /  /          
                 / \  \   | |__| |  /  /\  \   | |_| |  |  |/  /          
                |  |  |   |  __  | /  /__\  \  |    /   |      \           
                |  |  |   | |  | | |   __   |  |    \   |  |\   \          
                \     /   | |  | | |  |  |  |  | |\  \  |  | \   \       
                 \___/    |_|  |_| |__|  |__|  |_| \__\ |__|  \__/        
                                                                              
                      - O R C A' S   B I G   F R I E N D -                    
                                      &                                       
                       - I N T E G R A L  F E E D E R -                       
                                                                              
 v1 FN, 2020, v2 2021, v3 2022-2024                                           
------------------------------------------------------------------------------


----------------------
SHARK INTEGRAL PACKAGE
----------------------

Number of atoms                             ...     38
Number of basis functions                   ...    828
Number of shells                            ...    320
Maximum angular momentum                    ...      3
Integral batch strategy                     ... SHARK/LIBINT Hybrid
RI-J (if used) integral strategy            ... SPLIT-RIJ (Revised 2003 algorithm where possible)
Printlevel                                  ...      1
Contraction scheme used                     ... SEGMENTED contraction
Prescreening option                         ... SCHWARTZ
   Thresh                                   ... 1.000e-10
   Tcut                                     ... 1.000e-11
   Tpresel                                  ... 1.000e-11 
Coulomb Range Separation                    ... NOT USED
Exchange Range Separation                   ... NOT USED
Multipole approximations                    ... NOT USED
Finite Nucleus Model                        ... NOT USED
CABS basis                                  ... NOT available
Auxiliary Coulomb fitting basis             ... NOT available
Auxiliary J/K fitting basis                 ... NOT available
Auxiliary Correlation fitting basis         ... NOT available
Auxiliary 'external' fitting basis          ... NOT available

Checking pre-screening integrals            ... done (  0.0 sec) Dimension = 320
Check shell pair data                       ... done (  0.0 sec)
Shell pair information
Shell pair cut-off parameter TPreSel        ...   1.0e-11
Total number of shell pairs                 ...     51360
Shell pairs after pre-screening             ...     35685
Total number of primitive shell pairs       ...    159900
Primitive shell pairs kept                  ...     73824
          la=0 lb=0:   8556 shell pairs
          la=1 lb=0:  10148 shell pairs
          la=1 lb=1:   2949 shell pairs
          la=2 lb=0:   5270 shell pairs
          la=2 lb=1:   3082 shell pairs
          la=2 lb=2:    823 shell pairs
          la=3 lb=0:   2442 shell pairs
          la=3 lb=1:   1464 shell pairs
          la=3 lb=2:    758 shell pairs
          la=3 lb=3:    193 shell pairs

Calculating one electron integrals          ... done (  0.8 sec)
Calculating Nuclear repulsion               ... done (  0.0 sec) ENN=   1780.991769555255 Eh

Diagonalization of the overlap matrix:
Smallest eigenvalue                        ... 3.310e-06
Time for diagonalization                   ...    0.106 sec
Threshold for overlap eigenvalues          ... 1.000e-07
Number of eigenvalues below threshold      ... 0
Time for construction of square roots      ...    0.051 sec
Total time needed                          ...    0.179 sec

-------------------
DFT GRID GENERATION
-------------------

General Integration Accuracy     IntAcc      ... 4.959
Radial Grid Type                 RadialGrid  ... OptM3 with GC (2021)
Angular Grid (max. ang.)         AngularGrid ... 6 (Lebedev-590)
Angular grid pruning method      GridPruning ... 4 (adaptive)
Weight generation scheme         WeightScheme... mBecke (2022)
Basis function cutoff            BFCut       ... 1.0000e-10
Integration weight cutoff        WCut        ... 1.0000e-14
Partially contracted basis set               ... off
Rotationally invariant grid construction     ... off
Angular grids for H and He will be reduced by one unit

Total number of grid points                  ...   457905
Total number of batches                      ...     7173
Average number of points per batch           ...       63
Average number of grid points per atom       ...    12050
Initializing property integral containers    ... done (  0.0 sec)

SHARK setup successfully completed in   5.4 seconds

Maximum memory used throughout the entire STARTUP-calculation: 115.4 MB


           ************************************************************
           *        Program running with 104 parallel MPI-processes   *
           *              working on a common directory               *
           ************************************************************
-------------------------------------------------------------------------------
                                 ORCA GUESS
                   Start orbitals & Density for SCF / CASSCF
-------------------------------------------------------------------------------

------------
SCF SETTINGS
------------
Hamiltonian:
 Density Functional     Method          .... DFT(GTOs)
 Exchange Functional    Exchange        .... PBE
   PBE kappa parameter   XKappa         ....  0.804000
   PBE mue parameter    XMuePBE         ....  0.219520
 Correlation Functional Correlation     .... P86
 LDA part of GGA corr.  LDAOpt          .... VWN-5
 Gradients option       PostSCFGGA      .... off
 Hybrid DFT is turned on
   Fraction HF Exchange ScalHFX         ....  0.690000
   Scaling of DF-GGA-X  ScalDFX         ....  0.310000
   Scaling of DF-GGA-C  ScalDFC         ....  0.403800
   Scaling of DF-LDA-C  ScalLDAC        ....  0.403800
   Perturbative correction              ....  1.000000


General Settings:
 Integral files         IntName         .... compas3D_hc_c24h14_0pent_11_tz_nori
 Hartree-Fock type      HFTyp           .... RHF
 Total Charge           Charge          ....    0
 Multiplicity           Mult            ....    1
 Number of Electrons    NEL             ....  158
 Basis Dimension        Dim             ....  828
 Nuclear Repulsion      ENuc            ....   1780.9917695553 Eh

Convergence Acceleration:
 AO-DIIS                CNVDIIS         .... on
   Start iteration      DIISMaxIt       ....    12
   Startup error        DIISStart       ....  0.200000
   # of expansion vecs  DIISMaxEq       ....     5
   Bias factor          DIISBfac        ....   1.050
   Max. coefficient     DIISMaxC        ....  10.000
 MO-DIIS                CNVKDIIS        .... off
 Trust-Rad. Augm. Hess. CNVTRAH         .... auto
   Auto Start mean grad. ratio tolernc. ....  1.125000
   Auto Start start iteration           ....    50
   Auto Start num. interpolation iter.  ....    10
   Max. Number of Micro iterations      ....    24
   Max. Number of Macro iterations      .... Maxiter - #DIIS iter
   Number of Davidson start vectors     ....     2
   Converg. threshold    (grad. norm)   ....   5.000e-05
   Grad. Scal. Fac. for Micro threshold ....   0.100
   Minimum threshold for Micro iter.    ....   1.000e-02
   NR start threshold (gradient norm)   ....   1.000e-04
   Initial trust radius                 ....   0.400
   Minimum AH scaling param. (alpha)    ....   1.000
   Maximum AH scaling param. (alpha)    .... 1000.000
   Quad. conv. algorithm                .... NR
   White noise on init. David. guess    .... on
   Maximum white noise                  ....   0.010
   Pseudo random numbers                .... off
   Inactive MOs                         .... canonical
   Orbital update algorithm             .... Taylor
   Preconditioner                       .... Diag
   Full preconditioner red. dimension   ....   250
 SOSCF                  CNVSOSCF        .... on
   Start iteration      SOSCFMaxIt      ....   150
   Startup grad/error   SOSCFStart      ....  0.003300
   Hessian update       SOSCFHessUp     .... L-BFGS
 Level Shifting         CNVShift        .... on
   Level shift para.    LevelShift      ....    0.2500
   Turn off err/grad.   ShiftErr        ....    0.0010
 Zerner damping         CNVZerner       .... off
 Static damping         CNVDamp         .... on
   Fraction old density DampFac         ....    0.7000
   Max. Damping (<1)    DampMax         ....    0.9800
   Min. Damping (>=0)   DampMin         ....    0.0000
   Turn off err/grad.   DampErr         ....    0.1000

SCF Procedure:
 Maximum # iterations   MaxIter         ....   125
 SCF integral mode      SCFMode         .... Direct
   Integral package                     .... SHARK and LIBINT hybrid scheme
 Reset frequency        DirectResetFreq ....    20
 Integral Threshold     Thresh          ....  1.000e-10 Eh
 Primitive CutOff       TCut            ....  1.000e-11 Eh

Convergence Tolerance:
 Convergence Check Mode ConvCheckMode   .... Total+1el-Energy
 Convergence forced     ConvForced      .... 0
 Energy Change          TolE            ....  1.000e-06 Eh
 1-El. energy change                    ....  1.000e-03 Eh
 Orbital Gradient       TolG            ....  5.000e-05
 Orbital Rotation angle TolX            ....  5.000e-05
 DIIS Error             TolErr          ....  1.000e-06

------------------------------
INITIAL GUESS: MODEL POTENTIAL
------------------------------
Loading Hartree-Fock densities                     ... done
Calculating cut-offs                               ... done
Initializing the effective Hamiltonian             ... done
Setting up the integral package (SHARK)            ... done
Starting the Coulomb interaction                   ... done (   0.1 sec)
Making the grid                                    ... done (   0.3 sec)
Mapping shells                                     ... done
Starting the XC term evaluation                    ... done (   0.1 sec)
  promolecular density results
     # of electrons  =    157.975705375
     EX              =   -126.944319940
     EC              =      0.210720740
     EX+EC           =   -126.733599200
Transforming the Hamiltonian                       ... done (   0.1 sec)
Diagonalizing the Hamiltonian                      ... done (   0.1 sec)
Back transforming the eigenvectors                 ... done (   0.0 sec)
Now organizing SCF variables                       ... done
                      ------------------
                      INITIAL GUESS DONE (   0.9 sec)
                      ------------------
             **** ENERGY FILE WAS UPDATED (compas3D_hc_c24h14_0pent_11_tz_nori.en.tmp) ****
Finished Guess after  15.7 sec
Maximum memory used throughout the entire GUESS-calculation: 63.3 MB


           ************************************************************
           *        Program running with 104 parallel MPI-processes   *
           *              working on a common directory               *
           ************************************************************

-------------------------------------------------------------------------------------------
                                      ORCA LEAN-SCF
                              memory conserving SCF solver
-------------------------------------------------------------------------------------------

----------------------------------------D-I-I-S--------------------------------------------
Iteration    Energy (Eh)           Delta-E    RMSDP     MaxDP     DIISErr   Damp  Time(sec)
-------------------------------------------------------------------------------------------
               ***  Starting incremental Fock matrix formation  ***
    1    -919.0049086999140400     0.00e+00  8.98e-04  2.64e-02  1.43e-01  0.700   6.6
    2    -919.1813725295280619    -1.76e-01  7.64e-04  2.57e-02  9.00e-02  0.700   6.4
                               ***Turning on AO-DIIS***
    3    -919.2861182912208733    -1.05e-01  5.56e-04  2.04e-02  5.11e-02  0.700   6.0
    4    -919.3516325298894571    -6.55e-02  1.35e-03  4.92e-02  3.48e-02  0.000   6.1
    5    -919.4947410927832152    -1.43e-01  1.50e-04  1.07e-02  3.43e-03  0.000   6.1
                              *** Initializing SOSCF ***
---------------------------------------S-O-S-C-F--------------------------------------
Iteration    Energy (Eh)           Delta-E    RMSDP     MaxDP     MaxGrad    Time(sec)
--------------------------------------------------------------------------------------
    6    -919.4951715212575891    -4.30e-04  7.87e-05  4.85e-03  1.38e-03     6.1
               *** Restarting incremental Fock matrix formation ***
    7    -919.4953169043403705    -1.45e-04  1.03e-04  7.11e-03  1.19e-03     6.3
    8    -919.4954080711415827    -9.12e-05  8.86e-05  6.31e-03  7.92e-04     5.1
    9    -919.4954262824828675    -1.82e-05  4.39e-05  1.57e-03  6.16e-04     5.1
   10    -919.4954372963863989    -1.10e-05  2.86e-05  1.45e-03  1.11e-04     4.8
   11    -919.4954373734319688    -7.70e-08  2.46e-05  1.46e-03  7.98e-05     4.6
                 **** Energy Check signals convergence ****

               *****************************************************
               *                     SUCCESS                       *
               *           SCF CONVERGED AFTER  11 CYCLES          *
               *****************************************************

             **** ENERGY FILE WAS UPDATED (compas3D_hc_c24h14_0pent_11_tz_nori.en.tmp) ****

----------------
TOTAL SCF ENERGY
----------------

Total Energy       :       -919.49543737343197 Eh          -25020.74288 eV

Components:
Nuclear Repulsion  :       1780.99176955525468 Eh           48463.24987 eV
Electronic Energy  :      -2700.48720692868665 Eh          -73483.99275 eV
One Electron Energy:      -4782.56321167854185 Eh         -130140.16119 eV
Two Electron Energy:       2082.07600474985520 Eh           56656.16843 eV

Virial components:
Potential Energy   :      -1836.29163878889062 Eh          -49968.03582 eV
Kinetic Energy     :        916.79620141545865 Eh           24947.29294 eV
Virial Ratio       :          2.00294420499758

DFT components:
N(Alpha)           :       79.000017588873 electrons
N(Beta)            :       79.000017588873 electrons
N(Total)           :      158.000035177745 electrons
E(X)               :      -40.012164254377 Eh       
E(C)               :       -2.351055712881 Eh       
E(XC)              :      -42.363219967257 Eh       

---------------
SCF CONVERGENCE
---------------

  Last Energy change         ...    7.7046e-08  Tolerance :   1.0000e-06
  Last MAX-Density change    ...    1.4650e-03  Tolerance :   1.0000e-05
  Last RMS-Density change    ...    2.4588e-05  Tolerance :   1.0000e-06
  Last DIIS Error            ...    1.3765e-03  Tolerance :   1.0000e-06
  Last Orbital Gradient      ...    7.9841e-05  Tolerance :   5.0000e-05
  Last Orbital Rotation      ...    1.5341e-04  Tolerance :   5.0000e-05


----------------
ORBITAL ENERGIES
----------------

  NO   OCC          E(Eh)            E(eV) 
   0   2.0000     -10.840052      -294.9728 
   1   2.0000     -10.839464      -294.9568 
   2   2.0000     -10.838497      -294.9305 
   3   2.0000     -10.838453      -294.9293 
   4   2.0000     -10.834170      -294.8128 
   5   2.0000     -10.834166      -294.8127 
   6   2.0000     -10.833810      -294.8030 
   7   2.0000     -10.833809      -294.8029 
   8   2.0000     -10.832679      -294.7722 
   9   2.0000     -10.832679      -294.7722 
  10   2.0000     -10.825927      -294.5885 
  11   2.0000     -10.825925      -294.5884 
  12   2.0000     -10.825650      -294.5809 
  13   2.0000     -10.825649      -294.5809 
  14   2.0000     -10.825274      -294.5707 
  15   2.0000     -10.825272      -294.5706 
  16   2.0000     -10.825001      -294.5633 
  17   2.0000     -10.825001      -294.5632 
  18   2.0000     -10.824316      -294.5446 
  19   2.0000     -10.824316      -294.5446 
  20   2.0000     -10.824288      -294.5439 
  21   2.0000     -10.824288      -294.5439 
  22   2.0000     -10.823705      -294.5280 
  23   2.0000     -10.823704      -294.5280 
  24   2.0000      -1.089453       -29.6455 
  25   2.0000      -1.073168       -29.2024 
  26   2.0000      -1.025714       -27.9111 
  27   2.0000      -1.017817       -27.6962 
  28   2.0000      -1.009162       -27.4607 
  29   2.0000      -0.971083       -26.4245 
  30   2.0000      -0.945277       -25.7223 
  31   2.0000      -0.919210       -25.0130 
  32   2.0000      -0.913103       -24.8468 
  33   2.0000      -0.911551       -24.8046 
  34   2.0000      -0.898390       -24.4464 
  35   2.0000      -0.849770       -23.1234 
  36   2.0000      -0.801832       -21.8190 
  37   2.0000      -0.777603       -21.1597 
  38   2.0000      -0.768094       -20.9009 
  39   2.0000      -0.766829       -20.8665 
  40   2.0000      -0.752111       -20.4660 
  41   2.0000      -0.724127       -19.7045 
  42   2.0000      -0.701942       -19.1008 
  43   2.0000      -0.647304       -17.6140 
  44   2.0000      -0.643057       -17.4985 
  45   2.0000      -0.634706       -17.2712 
  46   2.0000      -0.632429       -17.2093 
  47   2.0000      -0.617411       -16.8006 
  48   2.0000      -0.609039       -16.5728 
  49   2.0000      -0.606916       -16.5150 
  50   2.0000      -0.569153       -15.4874 
  51   2.0000      -0.559099       -15.2139 
  52   2.0000      -0.544250       -14.8098 
  53   2.0000      -0.543714       -14.7952 
  54   2.0000      -0.530339       -14.4313 
  55   2.0000      -0.525433       -14.2978 
  56   2.0000      -0.524695       -14.2777 
  57   2.0000      -0.513453       -13.9718 
  58   2.0000      -0.504540       -13.7292 
  59   2.0000      -0.501259       -13.6399 
  60   2.0000      -0.500508       -13.6195 
  61   2.0000      -0.492768       -13.4089 
  62   2.0000      -0.478001       -13.0071 
  63   2.0000      -0.473907       -12.8957 
  64   2.0000      -0.470919       -12.8143 
  65   2.0000      -0.441060       -12.0019 
  66   2.0000      -0.436002       -11.8642 
  67   2.0000      -0.433006       -11.7827 
  68   2.0000      -0.427304       -11.6275 
  69   2.0000      -0.417374       -11.3573 
  70   2.0000      -0.415466       -11.3054 
  71   2.0000      -0.406023       -11.0485 
  72   2.0000      -0.369831       -10.0636 
  73   2.0000      -0.341722        -9.2987 
  74   2.0000      -0.308421        -8.3926 
  75   2.0000      -0.301854        -8.2139 
  76   2.0000      -0.301734        -8.2106 
  77   2.0000      -0.283777        -7.7220 
  78   2.0000      -0.209964        -5.7134 
  79   0.0000      -0.030321        -0.8251 
  80   0.0000       0.036452         0.9919 
  81   0.0000       0.052465         1.4276 
  82   0.0000       0.055043         1.4978 
  83   0.0000       0.061998         1.6871 
  84   0.0000       0.100927         2.7464 
  85   0.0000       0.109311         2.9745 
  86   0.0000       0.111957         3.0465 
  87   0.0000       0.116350         3.1661 
  88   0.0000       0.123156         3.3512 
  89   0.0000       0.130075         3.5395 
*Only the first 10 virtual orbitals were printed.
-------
TIMINGS
-------

Total SCF time: 0 days 0 hours 1 min 20 sec 

Total time                  ....      80.132 sec
Sum of individual times     ....      79.624 sec  ( 99.4%)

SCF preparation             ....      16.427 sec  ( 20.5%)
Fock matrix formation       ....      54.896 sec  ( 68.5%)
  Startup                   ....       0.915 sec  (  1.7% of F)
  Coulomb+Exchange Fock     ....      46.886 sec  ( 85.4% of F)
  XC integration            ....       5.099 sec  (  9.3% of F)
    XC Preparation          ....       0.000 sec  (  0.0% of XC)
    Basis function eval.    ....       0.500 sec  (  9.8% of XC)
    Density eval.           ....       0.580 sec  ( 11.4% of XC)
    XC-Functional eval.     ....       0.036 sec  (  0.7% of XC)
    XC-Potential eval.      ....       0.511 sec  ( 10.0% of XC)
Diagonalization             ....       0.000 sec  (  0.0%)
Density matrix formation    ....       1.453 sec  (  1.8%)
Total Energy calculation    ....       0.953 sec  (  1.2%)
Population analysis         ....       0.000 sec  (  0.0%)
Orbital Transformation      ....       0.716 sec  (  0.9%)
Orbital Orthonormalization  ....       0.000 sec  (  0.0%)
DIIS solution               ....       3.383 sec  (  4.2%)
SOSCF solution              ....       1.732 sec  (  2.2%)
Finished LeanSCF after  80.5 sec

Maximum memory used throughout the entire LEANSCF-calculation: 118.6 MB


           ************************************************************
           *        Program running with 104 parallel MPI-processes   *
           *              working on a common directory               *
           ************************************************************

------------------------------------------------------------------------------
                                ORCA  MP2 
------------------------------------------------------------------------------


----------
MP2 ENERGY (disk based algorithm)
----------

Dimension of the basis                      ...  828
Memory devoted to MP2                       ... 4096 MB   
Data format for buffers                     ... DOUBLE
Compression type for matrix containers      ... UNCOMPRESSED
Scaling for aa/bb pairs                     ...   5.710e-02
Scaling for ab pairs                        ...   5.979e-01
Overall scaling of the MP2 energy           ...   1.000e+00

-------------------------
SHARK HALF TRANSFORMATION (Exchange order)
-------------------------

Number of basis functions                   ...    828
Number of operators                         ...      1
   Operator  0:    0-  78 (p-index in (p*|q*))
   Operator  0:    0-  78 (q-index in (p*|q*)
Integral generator used                     ... SHARK
Contraction scheme used                     ... SEGMENTED CONTRACTION
MaxCore in resort                           ...   4096 MB

Half transformed integrals for op=   0      ... compas3D_hc_c24h14_0pent_11_tz_nori.SHARK_MNPQ0.tmp
Resorted half transformed integrals         ... compas3D_hc_c24h14_0pent_11_tz_nori.KAO_aa.tmp


ORCA finished by error termination in MP2
Calling Command: mpirun -np 104  /apps/orca/6.0.1/orca_mp2_mpi compas3D_hc_c24h14_0pent_11_tz_nori.mp2inp.tmp compas3D_hc_c24h14_0pent_11_tz_nori 
[file orca_tools/qcmsg.cpp, line 394]: 
  .... aborting the run

