
                                 *****************
                                 * O   R   C   A *
                                 *****************

                                            #,                                       
                                            ###                                      
                                            ####                                     
                                            #####                                    
                                            ######                                   
                                           ########,                                 
                                     ,,################,,,,,                         
                               ,,#################################,,                 
                          ,,##########################################,,             
                       ,#########################################, ''#####,          
                    ,#############################################,,   '####,        
                  ,##################################################,,,,####,       
                ,###########''''           ''''###############################       
              ,#####''   ,,,,##########,,,,          '''####'''          '####       
            ,##' ,,,,###########################,,,                        '##       
           ' ,,###''''                  '''############,,,                           
         ,,##''                                '''############,,,,        ,,,,,,###''
      ,#''                                            '''#######################'''  
     '                                                          ''''####''''         
             ,#######,   #######,   ,#######,      ##                                
            ,#'     '#,  ##    ##  ,#'     '#,    #''#        ,####,   ,####,        
            ##       ##  ##   ,#'  ##            #'  '#       #'       #'  '#        
            ##       ##  #######   ##           ,######,      #####,   #    #        
            '#,     ,#'  ##    ##  '#,     ,#' ,#      #,     #,   #   #,  ,#        
             '#######'   ##     ##  '#######'  #'      '#     '####' # '####'        



                #########################################################
                #                        -***-                          #
                #          Department of theory and spectroscopy        #
                #                                                       #
                #                      Frank Neese                      #
                #                                                       #
                #     Directorship, Architecture, Infrastructure        #
                #                    SHARK, DRIVERS                     #
                #        Core code/Algorithms in most modules           #
                #                                                       #
                #        Max Planck Institute fuer Kohlenforschung      #
                #                Kaiser Wilhelm Platz 1                 #
                #                 D-45470 Muelheim/Ruhr                 #
                #                      Germany                          #
                #                                                       #
                #                  All rights reserved                  #
                #                        -***-                          #
                #########################################################


                         Program Version 6.0.1  -  RELEASE   -


 With contributions from (in alphabetic order):
[Max-Planck-Institut fuer Kohlenforschung]                               
  Daniel Aravena         : Magnetic Suceptibility                        
  Michael Atanasov       : Ab Initio Ligand Field Theory (pilot matlab implementation)
  Alexander A. Auer      : GIAO ZORA, VPT2 properties, NMR spectrum      
  Ute Becker             : All parallelization in ORCA, NUMFREQ, NUMCALC 
  Giovanni Bistoni       : ED, misc. LED, open-shell LED, HFLD           
  Martin Brehm           : Molecular dynamics                            
  Dmytro Bykov           : pre 5.0 version of the SCF Hessian            
  Marcos Casanova-Páez   : Triplet and SCS-CIS(D). UHF-(DLPNO)-IP/EA/STEOM-CCSD. UHF-CVS-IP/STEOM-CCSD   
  Vijay G. Chilkuri      : MRCI spin determinant printing, contributions to CSF-ICE 
  Pauline Colinet        : FMM embedding                                 
  Dipayan Datta          : RHF DLPNO-CCSD density                        
  Achintya Kumar Dutta   : EOM-CC, STEOM-CC                              
  Nicolas Foglia         : Exact transition moments, OPA infrastructure, MCD improvements    
  Dmitry Ganyushin       : Spin-Orbit,Spin-Spin,Magnetic field MRCI      
  Miquel Garcia-Rates    : C-PCM and meta-GGA Hessian, CCSD/C-PCM, Gaussian charge scheme 
  Tiago L. C. Gouveia    : GS-ROHF, GS-ROCIS                             
  Yang Guo               : DLPNO-NEVPT2, F12-NEVPT2, CIM, IAO-localization        
  Andreas Hansen         : Spin unrestricted coupled pair/coupled cluster methods 
  Ingolf Harden          : AUTO-CI MPn and infrastructure                
  Benjamin Helmich-Paris : MC-RPA, TRAH-(SCF,CASSCF), AVAS, COSX integrals, SCF dyn. polar. 
  Lee Huntington         : MR-EOM, pCC                                   
  Robert Izsak           : Overlap fitted RIJCOSX, COSX-SCS-MP3, EOM     
  Riya Kayal             : Wick's Theorem for AUTO-CI, AUTO-CI UHF-CCSDT 
  Emily Kempfer          : AUTO-CI, RHF CISDT and CCSDT                  
  Christian Kollmar      : KDIIS, OOCD, Brueckner-CCSD(T), CCSD density, CASPT2, CASPT2-K, improved NEVPT2 
  Axel Koslowski         : Symmetry handling                             
  Simone Kossmann        : meta-GGA functionals, TD-DFT gradient, OOMP2, (MP2 Hessian; deprecated post 5.0) 
  Lucas Lang             : DCDCAS                                        
  Marvin Lechner         : AUTO-CI (C++ implementation), FIC-MRCC        
  Spencer Leger          : CASSCF response                               
  Dagmar Lenk            : GEPOL surface, SMD, ORCA-2-JSON               
  Dimitrios Liakos       : Extrapolation schemes; Compound Job, initial MDCI parallelization 
  Dimitrios Manganas     : Further ROCIS development; embedding schemes. LFT, Crystal Embedding 
  Dimitrios Pantazis     : SARC Basis sets                               
  Anastasios Papadopoulos: AUTO-CI, single reference methods and gradients 
  Taras Petrenko         : pre 6.0 DFT Hessian and TD-DFT gradient, (ASA, deprecated), ECA, 1-Electron XAS/XES, NRVS 
  Peter Pinski           : DLPNO-MP2, DLPNO-MP2 Gradient                 
  Christoph Reimann      : Effective Core Potentials                     
  Marius Retegan         : Local ZFS, SOC                                
  Christoph Riplinger    : Optimizer, TS searches, QM/MM, DLPNO-CCSD(T), (RO)-DLPNO pert. Triples 
  Michael Roemelt        : Original ROCIS implementation                 
  Masaaki Saitow         : Open-shell DLPNO-CCSD energy and density      
  Barbara Sandhoefer     : DKH picture change effects                    
  Kantharuban Sivalingam : CASSCF convergence/infrastructure, NEVPT2 and variants, FIC-MRCI 
  Bernardo de Souza      : ESD, SOC TD-DFT                               
  Georgi L. Stoychev     : AutoAux, RI-MP2 NMR, DLPNO-MP2 response, X2C  
  Van Anh Tran           : RI-MP2 g-tensors                              
  Willem Van den Heuvel  : Paramagnetic NMR                              
  Zikuan Wang            : NOTCH, Electric field optimization            
  Frank Wennmohs         : Technical directorship and infrastructure     
  Hang Xu                : AUTO-CI-Response properties                   
                                                                         
[FACCTs GmbH]                                                            
  Markus Bursch, Miquel Garcia-Rates, Christoph Riplinger, Bernardo de Souza, Georgi L. Stoychev 
                                                                 
  APM, Basis sets (HGBS, AHGBS, def-TZVP (Ac-Lr), def2-XVPD (La-Lu)), CI-OPT, improved COSX, DLPNO-Multilevel,           
  DOCKER, DRACO, updates on ESD, GOAT, IRC, LR-CPCM, MBIS, meta-GGA TD-DFT gradient, ML-optimized integration grids, 
  MM, NACMEs, nearIR, NEB, NEB-TS, NL-DFT gradient (VV10), 2- and 3-layer-ONIOM, interface openCOSMO-RS, QMMM,   
  Crystal-QMMM, SF, symmetry and pop. for TD-DFT, r2SCAN hybrids, SOLVATOR                                   
                                                                         
[Other institutions]                                                     
  V. Asgeirsson          : NEB                                           
  Christoph Bannwarth    : sTDA-DFT, sTD-DFT, PBEh-3c, B97-3c, D3        
  Sebastian Ehlert       : rSCAN, r2SCAN, r2SCAN-3c, D4, dhf basis sets  
  Marvin Friede          : D4 for Fr, Ra, Ac-Lr                          
  Lars Goerigk           : TD-DFT with DH, B97 family of functionals     
  Stefan Grimme          : VdW corrections, initial TS optimization, DFT functionals, gCP, sTDA/sTD-DF 
  Waldemar Hujo          : DFT-NL                                        
  H. Jonsson             : NEB                                           
  Holger Kruse           : gCP                                           
  Marcel Mueller         : wB97X-3c, vDZP basis set                      
  Hagen Neugebauer       : wr2SCAN                                       
  Tobias Risthaus        : range-separated hybrid DFT                    
  Lukas Wittmann         : regularized MP2, r2SCAN double-hybrids, wr2SCAN        
                                                                         
We gratefully acknowledge several colleagues who have allowed us to      
interface, adapt or use parts of their codes:                            
  Ed Valeev, F. Pavosevic, A. Kumar             : LibInt (2-el integral package), F12 methods 
  Garnet Chan, S. Sharma, J. Yang, R. Olivares  : DMRG                   
  Ulf Ekstrom                                   : XCFun DFT Library      
  Mihaly Kallay                                 : mrcc  (arbitrary order and MRCC methods)
  Frank Weinhold                                : gennbo (NPA and NBO analysis)           
  Simon Mueller                                 : openCOSMO-RS                            
  Christopher J. Cramer and Donald G. Truhlar   : smd solvation model                     
  S Lehtola, MJT Oliveira, MAL Marques          : LibXC Library                           
  Liviu Ungur et al                             : ANISO software                          


 Your calculation uses the libint2 library for the computation of 2-el integrals
 For citations please refer to: http://libint.valeyev.net

 Your ORCA version has been built with support for libXC version: 6.2.2
 For citations please refer to: https://libxc.gitlab.io

 This ORCA versions uses:
   CBLAS   interface :  Fast vector & matrix operations
   LAPACKE interface :  Fast linear algebra routines
   SCALAPACK package :  Parallel linear algebra routines
   Shared memory     :  Shared parallel matrices
   BLAS/LAPACK       :  OpenBLAS 0.3.27  USE64BITINT DYNAMIC_ARCH NO_AFFINITY SapphireRapids SINGLE_THREADED
        Core in use  :  SapphireRapids
   Copyright (c) 2011-2014, The OpenBLAS Project


Warning! Weird basis set assignment to AuxJK basis!


***************************************
The coordinates will be read from file: /g/data/kx58/rs2200/dhdft/inputs/compas3D-xyzs/hc_c28h16_0pent_1.xyz
***************************************


Your calculation utilizes the atom-pairwise dispersion correction
based on EEQ partial charges (D4)


================================================================================

----- Orbital basis set information -----
Your calculation utilizes the basis: def2-QZVPP
   F. Weigend and R. Ahlrichs, Phys. Chem. Chem. Phys. 7, 3297 (2005).

----- AuxC basis set information -----
Your calculation utilizes the auxiliary basis: def2-QZVPP/C
  H-La, Hf-Rn : A. Hellweg, C. Hattig, S. Hofener and W. Klopper, Theor. Chem. Acc. 117, 587 (2007).
        Ce-Lu : J. Chmela and M. E. Harding, Mol. Phys. (2018).

----- AuxJK basis set information -----
Your calculation utilizes the auxiliary basis: def2-QZVPP/C
  H-La, Hf-Rn : A. Hellweg, C. Hattig, S. Hofener and W. Klopper, Theor. Chem. Acc. 117, 587 (2007).
        Ce-Lu : J. Chmela and M. E. Harding, Mol. Phys. (2018).

================================================================================
                                        WARNINGS
                       Please study these warnings very carefully!
================================================================================


WARNING: No MP2 level density has been requested!
         To calculate MP2 level properties use
         %mp2 Density relaxed end
         or
         %mp2 Density unrelaxed end
         Otherwise for double-hybrid DFT only the energy is correct!

================================================================================
                                       INPUT FILE
================================================================================
NAME = compas3D_hc_c28h16_0pent_1_qz_riri.inp
|  1> ! RKS revDSD-PBEP86-D4/2021 defgrid3  RIJK NOPOP NoFrozencore NoUseSym
|  2> 
|  3> %basis
|  4> Basis "def2-QZVPP"
|  5> AuxJK "def2-QZVPP/C"
|  6> AuxC "def2-QZVPP/C"
|  7> end
|  8> 
|  9> %method
| 10> ScalHFX 0.69
| 11> ScalDFX 0.31
| 12> ScalDFC 0.4038
| 13> ScalLDAC 0.4038
| 14> 
| 15> D4S6 0.4612
| 16> D4S8 0.0
| 17> D4A1 0.44
| 18> D4A2 3.60
| 19> end
| 20> 
| 21> %mp2
| 22> PS 0.5979
| 23> PT 0.0571
| 24> 
| 25> end
| 26> 
| 27> %pal
| 28> nprocs 104
| 29> end
| 30> 
| 31> *XYZFILE 0 1 /g/data/kx58/rs2200/dhdft/inputs/compas3D-xyzs/hc_c28h16_0pent_1.xyz
| 32> 
| 33>                          ****END OF INPUT****
================================================================================

                       ****************************
                       * Single Point Calculation *
                       ****************************

---------------------------------
CARTESIAN COORDINATES (ANGSTROEM)
---------------------------------
  C      2.252482    0.273333   -0.687680
  C      1.217156   -0.654546   -0.413628
  C     -0.078970   -0.180495    0.032036
  C     -0.313610    1.196504    0.177700
  C      0.841269    2.093974    0.239378
  C      2.093712    1.658009   -0.248718
  C      3.425774   -0.175089   -1.307450
  C      3.598404   -1.513087   -1.612183
  C      2.615999   -2.436452   -1.276173
  C      1.426572   -2.035876   -0.666975
  C      0.398239   -3.013390   -0.279979
  C     -0.854691   -2.566394    0.182445
  C     -1.139424   -1.124592    0.248311
  C     -2.401126   -0.651932    0.524300
  C     -2.707107    0.724589    0.494717
  C     -1.669162    1.670575    0.266562
  C      0.778814    3.354387    0.873805
  C      1.869306    4.198634    0.922376
  C      3.080097    3.803207    0.344531
  C      3.187881    2.544486   -0.209746
  C      0.643805   -4.397543   -0.337058
  C     -0.311338   -5.319654    0.044885
  C     -1.552299   -4.875969    0.507686
  C     -1.810786   -3.520610    0.575001
  C     -4.050865    1.165831    0.636492
  C     -4.380551    2.485088    0.480388
  C     -3.372614    3.415342    0.140829
  C     -2.062325    3.020854    0.038946
  H      4.213183    0.531814   -1.563770
  H      4.511303   -1.847022   -2.108834
  H      2.782638   -3.485372   -1.514177
  H     -3.224541   -1.340381    0.707980
  H     -0.136786    3.653370    1.377936
  H      1.788391    5.161414    1.430758
  H      3.948091    4.464810    0.370960
  H      4.157368    2.221550   -0.585931
  H      1.613148   -4.762569   -0.672340
  H     -0.089555   -6.387407   -0.005250
  H     -2.312890   -5.592393    0.823933
  H     -2.777101   -3.194968    0.956709
  H     -4.821509    0.420915    0.847982
  H     -5.417141    2.812849    0.579909
  H     -3.639588    4.454634   -0.061084
  H     -1.319656    3.750572   -0.273577

----------------------------
CARTESIAN COORDINATES (A.U.)
----------------------------
  NO LB      ZA    FRAG     MASS         X           Y           Z
   0 C     6.0000    0    12.011    4.256574    0.516524   -1.299526
   1 C     6.0000    0    12.011    2.300092   -1.236913   -0.781643
   2 C     6.0000    0    12.011   -0.149231   -0.341086    0.060539
   3 C     6.0000    0    12.011   -0.592637    2.261064    0.335805
   4 C     6.0000    0    12.011    1.589769    3.957037    0.452358
   5 C     6.0000    0    12.011    3.956542    3.133183   -0.470009
   6 C     6.0000    0    12.011    6.473774   -0.330870   -2.470722
   7 C     6.0000    0    12.011    6.799998   -2.859320   -3.046584
   8 C     6.0000    0    12.011    4.943521   -4.604227   -2.411618
   9 C     6.0000    0    12.011    2.695829   -3.847248   -1.260401
  10 C     6.0000    0    12.011    0.752562   -5.694483   -0.529084
  11 C     6.0000    0    12.011   -1.615131   -4.849782    0.344770
  12 C     6.0000    0    12.011   -2.153199   -2.125171    0.469239
  13 C     6.0000    0    12.011   -4.537470   -1.231973    0.990782
  14 C     6.0000    0    12.011   -5.115691    1.369275    0.934880
  15 C     6.0000    0    12.011   -3.154258    3.156930    0.503730
  16 C     6.0000    0    12.011    1.471745    6.338874    1.651252
  17 C     6.0000    0    12.011    3.532476    7.934268    1.743039
  18 C     6.0000    0    12.011    5.820539    7.187020    0.651069
  19 C     6.0000    0    12.011    6.024222    4.808381   -0.396363
  20 C     6.0000    0    12.011    1.216615   -8.310151   -0.636948
  21 C     6.0000    0    12.011   -0.588343  -10.052689    0.084820
  22 C     6.0000    0    12.011   -2.933420   -9.214245    0.959387
  23 C     6.0000    0    12.011   -3.421889   -6.652989    1.086595
  24 C     6.0000    0    12.011   -7.655025    2.203102    1.202796
  25 C     6.0000    0    12.011   -8.278042    4.696136    0.907801
  26 C     6.0000    0    12.011   -6.373317    6.454060    0.266129
  27 C     6.0000    0    12.011   -3.897229    5.708587    0.073598
  28 H     1.0000    0     1.008    7.961763    1.004983   -2.955097
  29 H     1.0000    0     1.008    8.525128   -3.490366   -3.985119
  30 H     1.0000    0     1.008    5.258423   -6.586398   -2.861379
  31 H     1.0000    0     1.008   -6.093499   -2.532953    1.337888
  32 H     1.0000    0     1.008   -0.258488    6.903869    2.603922
  33 H     1.0000    0     1.008    3.379569    9.753660    2.703741
  34 H     1.0000    0     1.008    7.460811    8.437268    0.701013
  35 H     1.0000    0     1.008    7.856287    4.198121   -1.107249
  36 H     1.0000    0     1.008    3.048408   -8.999950   -1.270538
  37 H     1.0000    0     1.008   -0.169234  -12.070451   -0.009922
  38 H     1.0000    0     1.008   -4.370728  -10.568091    1.557007
  39 H     1.0000    0     1.008   -5.247960   -6.037614    1.807917
  40 H     1.0000    0     1.008   -9.111331    0.795414    1.602453
  41 H     1.0000    0     1.008  -10.236912    5.315514    1.095870
  42 H     1.0000    0     1.008   -6.877824    8.418039   -0.115432
  43 H     1.0000    0     1.008   -2.493788    7.087553   -0.516986

--------------------------------
INTERNAL COORDINATES (ANGSTROEM)
--------------------------------
 C      0   0   0     0.000000000000     0.00000000     0.00000000
 C      1   0   0     1.417026081162     0.00000000     0.00000000
 C      2   1   0     1.450270341924   119.89219556     0.00000000
 C      3   2   1     1.404421259477   120.11094413     0.71672754
 C      4   3   2     1.463900169883   118.27229978   343.19900536
 C      5   4   3     1.413122357805   119.70349736    19.50256678
 C      1   2   3     1.400646499628   119.20748755   189.62817646
 C      7   1   2     1.383077179814   120.78164382   357.89588927
 C      8   7   1     1.389469792375   120.08964913   358.49900431
 C      9   8   7     1.395106016292   121.17043737     1.97020373
 C     10   9   8     1.470635638629   121.34647514   181.50771047
 C     11  10   9     1.408358499209   119.83557663   187.69092274
 C      3   2   1     1.436195373131   119.42615559   177.17673793
 C     13   3   2     1.375306925002   118.79553379   187.21586744
 C     14  13   3     1.410429068465   122.02076078     5.21998649
 C     15  14  13     1.422770141939   119.60415583   355.46753024
 C      5   4   3     1.412459260937   122.08078902   204.81264203
 C     17   5   4     1.379957910906   121.78962380   180.34202409
 C     18  17   5     1.398671785340   119.77399628   359.30314289
 C     19  18  17     1.379572468318   119.44398698   356.80699918
 C     11  10   9     1.406925023042   121.41324754     8.87000810
 C     21  11  10     1.381472650620   121.65388627   178.98187050
 C     22  21  11     1.396791386986   119.59340727   359.63783689
 C     23  22  21     1.381427689359   119.60629753     0.14990131
 C     15  14  13     1.421435884952   120.39454560   172.88295894
 C     25  15  14     1.368758443582   121.03225887   186.41593341
 C     26  25  15     1.413013921812   119.34910082     1.56263084
 C     27  26  25     1.372172898190   120.64567505   356.43554623
 H      7   1   2     1.088772438198   120.14057489   177.37308064
 H      8   7   1     1.091586193172   120.03818995   179.07883414
 H      9   8   7     1.088414416369   118.63982564   180.87288676
 H     14  13   3     1.088904088661   120.68298886   180.91089113
 H     17   5   4     1.087134465374   119.40263069     3.16893251
 H     18  17   5     1.091762419274   119.82393299   180.66337325
 H     19  18  17     1.091710254053   120.46034775   179.61399798
 H     20  19  18     1.088902049468   118.61703189   184.71347341
 H     21  11  10     1.088707302431   119.85161769     0.08071500
 H     22  21  11     1.091695493648   119.97941178   180.34254415
 H     23  22  21     1.091684059161   120.43172662   180.70910204
 H     24  23  22     1.088810722890   118.46254482   181.16737890
 H     25  15  14     1.092483295879   118.32703721     4.83816656
 H     26  25  15     1.091718778335   120.50889491   179.29633544
 H     27  26  25     1.091866732100   119.77996643   175.28340450
 H     28  27  26     1.087067801379   118.73350091   176.91397220

---------------------------
INTERNAL COORDINATES (A.U.)
---------------------------
 C      0   0   0     0.000000000000     0.00000000     0.00000000
 C      1   0   0     2.677791218020     0.00000000     0.00000000
 C      2   1   0     2.740613766385   119.89219556     0.00000000
 C      3   2   1     2.653971557069   120.11094413     0.71672754
 C      4   3   2     2.766370408481   118.27229978   343.19900536
 C      5   4   3     2.670414249973   119.70349736    19.50256678
 C      1   2   3     2.646838294733   119.20748755   189.62817646
 C      7   1   2     2.613637091925   120.78164382   357.89588927
 C      8   7   1     2.625717378946   120.08964913   358.49900431
 C      9   8   7     2.636368298578   121.17043737     1.97020373
 C     10   9   8     2.779098599792   121.34647514   181.50771047
 C     11  10   9     2.661411861886   119.83557663   187.69092274
 C      3   2   1     2.714015930022   119.42615559   177.17673793
 C     13   3   2     2.598953438339   118.79553379   187.21586744
 C     14  13   3     2.665324670720   122.02076078     5.21998649
 C     15  14  13     2.688645919785   119.60415583   355.46753024
 C      5   4   3     2.669161178491   122.08078902   204.81264203
 C     17   5   4     2.607742527950   121.78962380   180.34202409
 C     18  17   5     2.643106625536   119.77399628   359.30314289
 C     19  18  17     2.607014147020   119.44398698   356.80699918
 C     11  10   9     2.658702984510   121.41324754     8.87000810
 C     21  11  10     2.610604971174   121.65388627   178.98187050
 C     22  21  11     2.639553187623   119.59340727   359.63783689
 C     23  22  21     2.610520006705   119.60629753     0.14990131
 C     15  14  13     2.686124539488   120.39454560   172.88295894
 C     25  15  14     2.586578601863   121.03225887   186.41593341
 C     26  25  15     2.670209335643   119.34910082     1.56263084
 C     27  26  25     2.593030985969   120.64567505   356.43554623
 H      7   1   2     2.057481730356   120.14057489   177.37308064
 H      8   7   1     2.062798956665   120.03818995   179.07883414
 H      9   8   7     2.056805167148   118.63982564   180.87288676
 H     14  13   3     2.057730513675   120.68298886   180.91089113
 H     17   5   4     2.054386410303   119.40263069     3.16893251
 H     18  17   5     2.063131975735   119.82393299   180.66337325
 H     19  18  17     2.063033397754   120.46034775   179.61399798
 H     20  19  18     2.057726660159   118.61703189   184.71347341
 H     21  11  10     2.057358641596   119.85161769     0.08071500
 H     22  21  11     2.063005504631   119.97941178   180.34254415
 H     23  22  21     2.062983896583   120.43172662   180.70910204
 H     24  23  22     2.057554077940   118.46254482   181.16737890
 H     25  15  14     2.064494235095   118.32703721     4.83816656
 H     26  25  15     2.063049506313   120.50889491   179.29633544
 H     27  26  25     2.063329098409   119.77996643   175.28340450
 H     28  27  26     2.054260433610   118.73350091   176.91397220

---------------------
BASIS SET INFORMATION
---------------------
There are 2 groups of distinct atoms

 Group   1 Type C   : 15s8p3d2f1g contracted to 7s4p3d2f1g pattern {8211111/5111/111/11/1}
 Group   2 Type H   : 7s3p2d1f contracted to 4s3p2d1f pattern {4111/111/11/1}

Atom   0C    basis set group =>   1
Atom   1C    basis set group =>   1
Atom   2C    basis set group =>   1
Atom   3C    basis set group =>   1
Atom   4C    basis set group =>   1
Atom   5C    basis set group =>   1
Atom   6C    basis set group =>   1
Atom   7C    basis set group =>   1
Atom   8C    basis set group =>   1
Atom   9C    basis set group =>   1
Atom  10C    basis set group =>   1
Atom  11C    basis set group =>   1
Atom  12C    basis set group =>   1
Atom  13C    basis set group =>   1
Atom  14C    basis set group =>   1
Atom  15C    basis set group =>   1
Atom  16C    basis set group =>   1
Atom  17C    basis set group =>   1
Atom  18C    basis set group =>   1
Atom  19C    basis set group =>   1
Atom  20C    basis set group =>   1
Atom  21C    basis set group =>   1
Atom  22C    basis set group =>   1
Atom  23C    basis set group =>   1
Atom  24C    basis set group =>   1
Atom  25C    basis set group =>   1
Atom  26C    basis set group =>   1
Atom  27C    basis set group =>   1
Atom  28H    basis set group =>   2
Atom  29H    basis set group =>   2
Atom  30H    basis set group =>   2
Atom  31H    basis set group =>   2
Atom  32H    basis set group =>   2
Atom  33H    basis set group =>   2
Atom  34H    basis set group =>   2
Atom  35H    basis set group =>   2
Atom  36H    basis set group =>   2
Atom  37H    basis set group =>   2
Atom  38H    basis set group =>   2
Atom  39H    basis set group =>   2
Atom  40H    basis set group =>   2
Atom  41H    basis set group =>   2
Atom  42H    basis set group =>   2
Atom  43H    basis set group =>   2
---------------------------------
AUXILIARY/C BASIS SET INFORMATION
---------------------------------
There are 2 groups of distinct atoms

 Group   1 Type C   : 9s8p7d5f3g1h contracted to 9s8p7d5f3g1h pattern {111111111/11111111/1111111/11111/111/1}
 Group   2 Type H   : 6s4p3d2f1g contracted to 6s4p3d2f1g pattern {111111/1111/111/11/1}

Atom   0C    basis set group =>   1
Atom   1C    basis set group =>   1
Atom   2C    basis set group =>   1
Atom   3C    basis set group =>   1
Atom   4C    basis set group =>   1
Atom   5C    basis set group =>   1
Atom   6C    basis set group =>   1
Atom   7C    basis set group =>   1
Atom   8C    basis set group =>   1
Atom   9C    basis set group =>   1
Atom  10C    basis set group =>   1
Atom  11C    basis set group =>   1
Atom  12C    basis set group =>   1
Atom  13C    basis set group =>   1
Atom  14C    basis set group =>   1
Atom  15C    basis set group =>   1
Atom  16C    basis set group =>   1
Atom  17C    basis set group =>   1
Atom  18C    basis set group =>   1
Atom  19C    basis set group =>   1
Atom  20C    basis set group =>   1
Atom  21C    basis set group =>   1
Atom  22C    basis set group =>   1
Atom  23C    basis set group =>   1
Atom  24C    basis set group =>   1
Atom  25C    basis set group =>   1
Atom  26C    basis set group =>   1
Atom  27C    basis set group =>   1
Atom  28H    basis set group =>   2
Atom  29H    basis set group =>   2
Atom  30H    basis set group =>   2
Atom  31H    basis set group =>   2
Atom  32H    basis set group =>   2
Atom  33H    basis set group =>   2
Atom  34H    basis set group =>   2
Atom  35H    basis set group =>   2
Atom  36H    basis set group =>   2
Atom  37H    basis set group =>   2
Atom  38H    basis set group =>   2
Atom  39H    basis set group =>   2
Atom  40H    basis set group =>   2
Atom  41H    basis set group =>   2
Atom  42H    basis set group =>   2
Atom  43H    basis set group =>   2
----------------------------------
AUXILIARY/JK BASIS SET INFORMATION
----------------------------------
There are 2 groups of distinct atoms

 Group   1 Type C   : 9s8p7d5f3g1h contracted to 9s8p7d5f3g1h pattern {111111111/11111111/1111111/11111/111/1}
 Group   2 Type H   : 6s4p3d2f1g contracted to 6s4p3d2f1g pattern {111111/1111/111/11/1}

Atom   0C    basis set group =>   1
Atom   1C    basis set group =>   1
Atom   2C    basis set group =>   1
Atom   3C    basis set group =>   1
Atom   4C    basis set group =>   1
Atom   5C    basis set group =>   1
Atom   6C    basis set group =>   1
Atom   7C    basis set group =>   1
Atom   8C    basis set group =>   1
Atom   9C    basis set group =>   1
Atom  10C    basis set group =>   1
Atom  11C    basis set group =>   1
Atom  12C    basis set group =>   1
Atom  13C    basis set group =>   1
Atom  14C    basis set group =>   1
Atom  15C    basis set group =>   1
Atom  16C    basis set group =>   1
Atom  17C    basis set group =>   1
Atom  18C    basis set group =>   1
Atom  19C    basis set group =>   1
Atom  20C    basis set group =>   1
Atom  21C    basis set group =>   1
Atom  22C    basis set group =>   1
Atom  23C    basis set group =>   1
Atom  24C    basis set group =>   1
Atom  25C    basis set group =>   1
Atom  26C    basis set group =>   1
Atom  27C    basis set group =>   1
Atom  28H    basis set group =>   2
Atom  29H    basis set group =>   2
Atom  30H    basis set group =>   2
Atom  31H    basis set group =>   2
Atom  32H    basis set group =>   2
Atom  33H    basis set group =>   2
Atom  34H    basis set group =>   2
Atom  35H    basis set group =>   2
Atom  36H    basis set group =>   2
Atom  37H    basis set group =>   2
Atom  38H    basis set group =>   2
Atom  39H    basis set group =>   2
Atom  40H    basis set group =>   2
Atom  41H    basis set group =>   2
Atom  42H    basis set group =>   2
Atom  43H    basis set group =>   2


           ************************************************************
           *        Program running with 104 parallel MPI-processes   *
           *              working on a common directory               *
           ************************************************************
------------------------------------------------------------------------------
                             ORCA STARTUP CALCULATIONS
                           -- RI-GTO INTEGRALS CHOSEN --
------------------------------------------------------------------------------
------------------------------------------------------------------------------
                   ___                                                        
                  /   \      - P O W E R E D   B Y -                         
                 /     \                                                     
                 |  |  |   _    _      __       _____    __    __             
                 |  |  |  | |  | |    /  \     |  _  \  |  |  /  |          
                  \  \/   | |  | |   /    \    | | | |  |  | /  /          
                 / \  \   | |__| |  /  /\  \   | |_| |  |  |/  /          
                |  |  |   |  __  | /  /__\  \  |    /   |      \           
                |  |  |   | |  | | |   __   |  |    \   |  |\   \          
                \     /   | |  | | |  |  |  |  | |\  \  |  | \   \       
                 \___/    |_|  |_| |__|  |__|  |_| \__\ |__|  \__/        
                                                                              
                      - O R C A' S   B I G   F R I E N D -                    
                                      &                                       
                       - I N T E G R A L  F E E D E R -                       
                                                                              
 v1 FN, 2020, v2 2021, v3 2022-2024                                           
------------------------------------------------------------------------------


----------------------
SHARK INTEGRAL PACKAGE
----------------------

Number of atoms                             ...     44
Number of basis functions                   ...   2076
Number of shells                            ...    636
Maximum angular momentum                    ...      4
Integral batch strategy                     ... SHARK/LIBINT Hybrid
RI-J (if used) integral strategy            ... SPLIT-RIJ (Revised 2003 algorithm where possible)
Printlevel                                  ...      1
Contraction scheme used                     ... SEGMENTED contraction
Prescreening option                         ... SCHWARTZ
   Thresh                                   ... 1.000e-10
   Tcut                                     ... 1.000e-11
   Tpresel                                  ... 1.000e-11 
Coulomb Range Separation                    ... NOT USED
Exchange Range Separation                   ... NOT USED
Multipole approximations                    ... NOT USED
Finite Nucleus Model                        ... NOT USED
CABS basis                                  ... NOT available
Auxiliary Coulomb fitting basis             ... NOT available
Auxiliary J/K fitting basis                 ... AVAILABLE
   # of basis functions in Aux-JK           ...   4844
   # of shells in Aux-JK                    ...   1180
   Maximum angular momentum in Aux-JK       ...      5
Auxiliary Correlation fitting basis         ... AVAILABLE
   # of basis functions in Aux-C            ...   4844
   # of shells in Aux-C                     ...   1180
   Maximum angular momentum in Aux-C        ...      5
Auxiliary 'external' fitting basis          ... NOT available

Checking pre-screening integrals            ... done (  0.0 sec) Dimension = 636
Check shell pair data                       ... done (  0.0 sec)
Shell pair information
Shell pair cut-off parameter TPreSel        ...   1.0e-11
Total number of shell pairs                 ...    202566
Shell pairs after pre-screening             ...    114957
Total number of primitive shell pairs       ...    521898
Primitive shell pairs kept                  ...    201770
          la=0 lb=0:  17554 shell pairs
          la=1 lb=0:  26137 shell pairs
          la=1 lb=1:   9119 shell pairs
          la=2 lb=0:  15611 shell pairs
          la=2 lb=1:  11771 shell pairs
          la=2 lb=2:   3707 shell pairs
          la=3 lb=0:   9322 shell pairs
          la=3 lb=1:   6945 shell pairs
          la=3 lb=2:   4199 shell pairs
          la=3 lb=3:   1254 shell pairs
          la=4 lb=0:   3697 shell pairs
          la=4 lb=1:   2781 shell pairs
          la=4 lb=2:   1667 shell pairs
          la=4 lb=3:    978 shell pairs
          la=4 lb=4:    215 shell pairs

Calculating one electron integrals          ... done (  1.2 sec)
Calculating RI/JK V-Matrix + Cholesky decomp... done (  1.4 sec)
Calculating RI/C V-Matrix + Cholesky decomp.... done (  1.3 sec)
Calculating Nuclear repulsion               ... done (  0.0 sec) ENN=   2315.341262658785 Eh

Diagonalization of the overlap matrix:
Smallest eigenvalue                        ... 1.629e-07
Time for diagonalization                   ...    0.729 sec
Threshold for overlap eigenvalues          ... 1.000e-07
Number of eigenvalues below threshold      ... 0

IMPORTANT:
Smallest eigenvalue of S below the DiffSThresh (1.000e-06) while
Thresh>1e-12 and/or TCut>1e-13! In order to avoid SCF convergence issues,
Thresh will be set to at least 1e-12 and TCut to at least 1e-13.
This can be turned off by adding %SCF DiffSThresh -1 END to the input.

Time for construction of square roots      ...    0.528 sec
Total time needed                          ...    1.312 sec

-------------------
DFT GRID GENERATION
-------------------

General Integration Accuracy     IntAcc      ... 4.959
Radial Grid Type                 RadialGrid  ... OptM3 with GC (2021)
Angular Grid (max. ang.)         AngularGrid ... 6 (Lebedev-590)
Angular grid pruning method      GridPruning ... 4 (adaptive)
Weight generation scheme         WeightScheme... mBecke (2022)
Basis function cutoff            BFCut       ... 1.0000e-10
Integration weight cutoff        WCut        ... 1.0000e-14
Partially contracted basis set               ... off
Rotationally invariant grid construction     ... off
Angular grids for H and He will be reduced by one unit
Diffuse basis detected: some atoms will have their outermost
                        angular grid increased by 1.

Total number of grid points                  ...   542134
Total number of batches                      ...     8493
Average number of points per batch           ...       63
Average number of grid points per atom       ...    12321
Initializing property integral containers    ... done (  0.1 sec)

SHARK setup successfully completed in  13.2 seconds

Maximum memory used throughout the entire STARTUP-calculation: 235.5 MB


           ************************************************************
           *        Program running with 104 parallel MPI-processes   *
           *              working on a common directory               *
           ************************************************************
-------------------------------------------------------------------------------
                                 ORCA GUESS
                   Start orbitals & Density for SCF / CASSCF
-------------------------------------------------------------------------------

------------
SCF SETTINGS
------------
Hamiltonian:
 Density Functional     Method          .... DFT(GTOs)
 Exchange Functional    Exchange        .... PBE
   PBE kappa parameter   XKappa         ....  0.804000
   PBE mue parameter    XMuePBE         ....  0.219520
 Correlation Functional Correlation     .... P86
 LDA part of GGA corr.  LDAOpt          .... VWN-5
 Gradients option       PostSCFGGA      .... off
 Hybrid DFT is turned on
   Fraction HF Exchange ScalHFX         ....  0.690000
   Scaling of DF-GGA-X  ScalDFX         ....  0.310000
   Scaling of DF-GGA-C  ScalDFC         ....  0.403800
   Scaling of DF-LDA-C  ScalLDAC        ....  0.403800
   Perturbative correction              ....  1.000000
 RI-approximation to the Coulomb term is turned on
   Number of AuxJK basis functions      .... 4844
   RI-JK (J+K treated both via RI)      .... on


General Settings:
 Integral files         IntName         .... compas3D_hc_c28h16_0pent_1_qz_riri
 Hartree-Fock type      HFTyp           .... RHF
 Total Charge           Charge          ....    0
 Multiplicity           Mult            ....    1
 Number of Electrons    NEL             ....  184
 Basis Dimension        Dim             .... 2076
 Nuclear Repulsion      ENuc            ....   2315.3412626588 Eh

Convergence Acceleration:
 AO-DIIS                CNVDIIS         .... on
   Start iteration      DIISMaxIt       ....    12
   Startup error        DIISStart       ....  0.200000
   # of expansion vecs  DIISMaxEq       ....     5
   Bias factor          DIISBfac        ....   1.050
   Max. coefficient     DIISMaxC        ....  10.000
 MO-DIIS                CNVKDIIS        .... off
 Trust-Rad. Augm. Hess. CNVTRAH         .... auto
   Auto Start mean grad. ratio tolernc. ....  1.125000
   Auto Start start iteration           ....    50
   Auto Start num. interpolation iter.  ....    10
   Max. Number of Micro iterations      ....    24
   Max. Number of Macro iterations      .... Maxiter - #DIIS iter
   Number of Davidson start vectors     ....     2
   Converg. threshold    (grad. norm)   ....   5.000e-05
   Grad. Scal. Fac. for Micro threshold ....   0.100
   Minimum threshold for Micro iter.    ....   1.000e-02
   NR start threshold (gradient norm)   ....   1.000e-04
   Initial trust radius                 ....   0.400
   Minimum AH scaling param. (alpha)    ....   1.000
   Maximum AH scaling param. (alpha)    .... 1000.000
   Quad. conv. algorithm                .... NR
   White noise on init. David. guess    .... on
   Maximum white noise                  ....   0.010
   Pseudo random numbers                .... off
   Inactive MOs                         .... canonical
   Orbital update algorithm             .... Taylor
   Preconditioner                       .... Diag
   Full preconditioner red. dimension   ....   250
 SOSCF                  CNVSOSCF        .... on
   Start iteration      SOSCFMaxIt      ....   150
   Startup grad/error   SOSCFStart      ....  0.003300
   Hessian update       SOSCFHessUp     .... L-BFGS
 Level Shifting         CNVShift        .... on
   Level shift para.    LevelShift      ....    0.2500
   Turn off err/grad.   ShiftErr        ....    0.0010
 Zerner damping         CNVZerner       .... off
 Static damping         CNVDamp         .... on
   Fraction old density DampFac         ....    0.7000
   Max. Damping (<1)    DampMax         ....    0.9800
   Min. Damping (>=0)   DampMin         ....    0.0000
   Turn off err/grad.   DampErr         ....    0.1000

SCF Procedure:
 Maximum # iterations   MaxIter         ....   125
 SCF integral mode      SCFMode         .... Direct
   Integral package                     .... SHARK and LIBINT hybrid scheme
 Reset frequency        DirectResetFreq ....    20
 Integral Threshold     Thresh          ....  1.000e-12 Eh
 Primitive CutOff       TCut            ....  1.000e-13 Eh

Convergence Tolerance:
 Convergence Check Mode ConvCheckMode   .... Total+1el-Energy
 Convergence forced     ConvForced      .... 0
 Energy Change          TolE            ....  1.000e-06 Eh
 1-El. energy change                    ....  1.000e-03 Eh
 Orbital Gradient       TolG            ....  5.000e-05
 Orbital Rotation angle TolX            ....  5.000e-05
 DIIS Error             TolErr          ....  1.000e-06

------------------------------
INITIAL GUESS: MODEL POTENTIAL
------------------------------
Loading Hartree-Fock densities                     ... done
Calculating cut-offs                               ... done
Initializing the effective Hamiltonian             ... done
Setting up the integral package (SHARK)            ... done
Starting the Coulomb interaction                   ... done (   0.5 sec)
Making the grid                                    ... done (   0.4 sec)
Mapping shells                                     ... done
Starting the XC term evaluation                    ... done (   0.1 sec)
  promolecular density results
     # of electrons  =    184.000633172
     EX              =   -148.031176781
     EC              =      0.233923521
     EX+EC           =   -147.797253260
Transforming the Hamiltonian                       ... done (   0.5 sec)
Diagonalizing the Hamiltonian                      ... done (   0.5 sec)
Back transforming the eigenvectors                 ... done (   0.2 sec)
Now organizing SCF variables                       ... done
                      ------------------
                      INITIAL GUESS DONE (   2.9 sec)
                      ------------------
             **** ENERGY FILE WAS UPDATED (compas3D_hc_c28h16_0pent_1_qz_riri.en.tmp) ****
Finished Guess after  20.4 sec
Maximum memory used throughout the entire GUESS-calculation: 255.4 MB


           ************************************************************
           *        Program running with 104 parallel MPI-processes   *
           *              working on a common directory               *
           ************************************************************

-------------------------------------------------------------------------------------------
                                      ORCA LEAN-SCF
                              memory conserving SCF solver
-------------------------------------------------------------------------------------------

----------------------------------------D-I-I-S--------------------------------------------
Iteration    Energy (Eh)           Delta-E    RMSDP     MaxDP     DIISErr   Damp  Time(sec)
-------------------------------------------------------------------------------------------
    1    -1072.0401673700862375     0.00e+00  1.35e-03  4.16e-01  1.49e-01  0.700  21.2
    2    -1071.8441147160956461     1.96e-01  1.87e-03  5.85e-01  1.32e-01  0.700  24.3
                               ***Turning on AO-DIIS***
    3    -1071.9666668986264995    -1.23e-01  4.10e-04  7.30e-02  7.59e-02  0.700  21.1
    4    -1072.2116006160385950    -2.45e-01  1.74e-03  5.26e-01  4.11e-02  0.000  23.0
    5    -1072.5978887307392142    -3.86e-01  5.84e-04  1.77e-01  3.05e-02  0.000  21.2
    6    -1072.6137043764174450    -1.58e-02  2.47e-04  7.74e-02  1.58e-02  0.000  21.4
    7    -1072.6177408400571949    -4.04e-03  8.68e-05  2.38e-02  4.66e-03  0.000  22.2
                              *** Initializing SOSCF ***
---------------------------------------S-O-S-C-F--------------------------------------
Iteration    Energy (Eh)           Delta-E    RMSDP     MaxDP     MaxGrad    Time(sec)
--------------------------------------------------------------------------------------
    8    -1072.6182519468807186    -5.11e-04  1.11e-04  3.43e-02  1.27e-03    22.9
    9    -1072.6182961696299571    -4.42e-05  4.41e-05  1.06e-02  1.08e-04    20.9
   10    -1072.6183004248018733    -4.26e-06  4.92e-05  1.49e-02  6.69e-05    19.8
   11    -1072.6183010710306007    -6.46e-07  8.20e-06  2.46e-03  4.48e-05    18.9
                 **** Energy Check signals convergence ****

               *****************************************************
               *                     SUCCESS                       *
               *           SCF CONVERGED AFTER  11 CYCLES          *
               *****************************************************

             **** ENERGY FILE WAS UPDATED (compas3D_hc_c28h16_0pent_1_qz_riri.en.tmp) ****

----------------
TOTAL SCF ENERGY
----------------

Total Energy       :      -1072.61830107103060 Eh          -29187.42783 eV

Components:
Nuclear Repulsion  :       2315.34126265878467 Eh           63003.63880 eV
Electronic Energy  :      -3387.95956372981527 Eh          -92191.06663 eV
One Electron Energy:      -6054.46103614419735 Eh         -164750.26053 eV
Two Electron Energy:       2666.50147241438208 Eh           72559.19390 eV

Virial components:
Potential Energy   :      -2142.02836324836971 Eh          -58287.55505 eV
Kinetic Energy     :       1069.41006217733911 Eh           29100.12721 eV
Virial Ratio       :          2.00300000814202

DFT components:
N(Alpha)           :       91.999996360847 electrons
N(Beta)            :       91.999996360847 electrons
N(Total)           :      183.999992721694 electrons
E(X)               :      -46.648721113791 Eh       
E(C)               :       -2.741779407495 Eh       
E(XC)              :      -49.390500521286 Eh       

---------------
SCF CONVERGENCE
---------------

  Last Energy change         ...    6.4623e-07  Tolerance :   1.0000e-06
  Last MAX-Density change    ...    2.4619e-03  Tolerance :   1.0000e-05
  Last RMS-Density change    ...    8.1998e-06  Tolerance :   1.0000e-06
  Last DIIS Error            ...    1.2673e-03  Tolerance :   1.0000e-06
  Last Orbital Gradient      ...    4.4768e-05  Tolerance :   5.0000e-05
  Last Orbital Rotation      ...    6.0552e-05  Tolerance :   5.0000e-05


----------------
ORBITAL ENERGIES
----------------

  NO   OCC          E(Eh)            E(eV) 
   0   2.0000     -10.842915      -295.0507 
   1   2.0000     -10.840513      -294.9853 
   2   2.0000     -10.839807      -294.9661 
   3   2.0000     -10.839220      -294.9502 
   4   2.0000     -10.839135      -294.9478 
   5   2.0000     -10.838906      -294.9416 
   6   2.0000     -10.838670      -294.9352 
   7   2.0000     -10.838273      -294.9244 
   8   2.0000     -10.838186      -294.9220 
   9   2.0000     -10.837900      -294.9142 
  10   2.0000     -10.837558      -294.9049 
  11   2.0000     -10.833929      -294.8062 
  12   2.0000     -10.826255      -294.5974 
  13   2.0000     -10.826126      -294.5939 
  14   2.0000     -10.825973      -294.5897 
  15   2.0000     -10.825864      -294.5867 
  16   2.0000     -10.825665      -294.5813 
  17   2.0000     -10.825164      -294.5677 
  18   2.0000     -10.825160      -294.5676 
  19   2.0000     -10.824677      -294.5544 
  20   2.0000     -10.824593      -294.5522 
  21   2.0000     -10.824557      -294.5512 
  22   2.0000     -10.824349      -294.5455 
  23   2.0000     -10.824259      -294.5431 
  24   2.0000     -10.824201      -294.5415 
  25   2.0000     -10.823997      -294.5359 
  26   2.0000     -10.823643      -294.5263 
  27   2.0000     -10.823269      -294.5161 
  28   2.0000      -1.096928       -29.8489 
  29   2.0000      -1.063029       -28.9265 
  30   2.0000      -1.059993       -28.8439 
  31   2.0000      -1.035011       -28.1641 
  32   2.0000      -1.015175       -27.6243 
  33   2.0000      -0.977524       -26.5998 
  34   2.0000      -0.968208       -26.3463 
  35   2.0000      -0.955523       -26.0011 
  36   2.0000      -0.933576       -25.4039 
  37   2.0000      -0.916855       -24.9489 
  38   2.0000      -0.913425       -24.8556 
  39   2.0000      -0.891585       -24.2613 
  40   2.0000      -0.886367       -24.1193 
  41   2.0000      -0.869245       -23.6533 
  42   2.0000      -0.798632       -21.7319 
  43   2.0000      -0.785617       -21.3777 
  44   2.0000      -0.775782       -21.1101 
  45   2.0000      -0.770291       -20.9607 
  46   2.0000      -0.748885       -20.3782 
  47   2.0000      -0.739934       -20.1346 
  48   2.0000      -0.714983       -19.4557 
  49   2.0000      -0.703073       -19.1316 
  50   2.0000      -0.692705       -18.8495 
  51   2.0000      -0.661872       -18.0105 
  52   2.0000      -0.636574       -17.3221 
  53   2.0000      -0.633822       -17.2472 
  54   2.0000      -0.622066       -16.9273 
  55   2.0000      -0.612527       -16.6677 
  56   2.0000      -0.594230       -16.1698 
  57   2.0000      -0.591963       -16.1081 
  58   2.0000      -0.576829       -15.6963 
  59   2.0000      -0.563748       -15.3404 
  60   2.0000      -0.556365       -15.1395 
  61   2.0000      -0.551927       -15.0187 
  62   2.0000      -0.541477       -14.7343 
  63   2.0000      -0.533715       -14.5231 
  64   2.0000      -0.531870       -14.4729 
  65   2.0000      -0.531216       -14.4551 
  66   2.0000      -0.522235       -14.2107 
  67   2.0000      -0.521065       -14.1789 
  68   2.0000      -0.518511       -14.1094 
  69   2.0000      -0.509753       -13.8711 
  70   2.0000      -0.486984       -13.2515 
  71   2.0000      -0.477707       -12.9991 
  72   2.0000      -0.476543       -12.9674 
  73   2.0000      -0.470011       -12.7897 
  74   2.0000      -0.468071       -12.7369 
  75   2.0000      -0.462111       -12.5747 
  76   2.0000      -0.450133       -12.2487 
  77   2.0000      -0.446003       -12.1363 
  78   2.0000      -0.440526       -11.9873 
  79   2.0000      -0.433956       -11.8085 
  80   2.0000      -0.422296       -11.4913 
  81   2.0000      -0.411422       -11.1954 
  82   2.0000      -0.403131       -10.9697 
  83   2.0000      -0.375708       -10.2235 
  84   2.0000      -0.365098        -9.9348 
  85   2.0000      -0.345819        -9.4102 
  86   2.0000      -0.326521        -8.8851 
  87   2.0000      -0.315108        -8.5745 
  88   2.0000      -0.302552        -8.2329 
  89   2.0000      -0.278875        -7.5886 
  90   2.0000      -0.261802        -7.1240 
  91   2.0000      -0.238731        -6.4962 
  92   0.0000      -0.002906        -0.0791 
  93   0.0000       0.016939         0.4609 
  94   0.0000       0.025544         0.6951 
  95   0.0000       0.051551         1.4028 
  96   0.0000       0.059460         1.6180 
  97   0.0000       0.072066         1.9610 
  98   0.0000       0.072932         1.9846 
  99   0.0000       0.077142         2.0991 
 100   0.0000       0.077661         2.1133 
 101   0.0000       0.088263         2.4018 
 102   0.0000       0.089103         2.4246 
*Only the first 10 virtual orbitals were printed.
-------
TIMINGS
-------

Total SCF time: 0 days 0 hours 4 min 16 sec 

Total time                  ....     256.045 sec
Sum of individual times     ....     255.986 sec  (100.0%)

SCF preparation             ....      16.919 sec  (  6.6%)
Fock matrix formation       ....     205.011 sec  ( 80.1%)
  Startup                   ....       3.102 sec  (  1.5% of F)
  RI-JK                     ....     180.026 sec  ( 87.8% of F)
  XC integration            ....      14.462 sec  (  7.1% of F)
    XC Preparation          ....       0.000 sec  (  0.0% of XC)
    Basis function eval.    ....       1.095 sec  (  7.6% of XC)
    Density eval.           ....       3.123 sec  ( 21.6% of XC)
    XC-Functional eval.     ....       0.033 sec  (  0.2% of XC)
    XC-Potential eval.      ....       4.220 sec  ( 29.2% of XC)
Diagonalization             ....       0.000 sec  (  0.0%)
Density matrix formation    ....       4.907 sec  (  1.9%)
Total Energy calculation    ....       2.488 sec  (  1.0%)
Population analysis         ....       0.000 sec  (  0.0%)
Orbital Transformation      ....       3.260 sec  (  1.3%)
Orbital Orthonormalization  ....       0.000 sec  (  0.0%)
DIIS solution               ....      18.894 sec  (  7.4%)
SOSCF solution              ....       4.328 sec  (  1.7%)
Finished LeanSCF after 256.8 sec

Maximum memory used throughout the entire LEANSCF-calculation: 791.2 MB


           ************************************************************
           *        Program running with 104 parallel MPI-processes   *
           *              working on a common directory               *
           ************************************************************

------------------------------------------------------------------------------
                                ORCA  MP2 
------------------------------------------------------------------------------


-------------
RI-MP2 ENERGY
-------------
Dimension of the orbital basis            ... 2076
Dimension of the AuxC basis               ... 4844
Memory devoted to MP2                     ... 4096 MB   
Data format for matrix containers         ... DOUBLE
Compression type for matrix containers    ... UNCOMPRESSED
Scaling for aa/bb pairs                   ...   5.710e-02
Scaling for ab pairs                      ...   5.979e-01
Overall scaling of the MP2 energy         ...   1.000e+00

-----------------------
SHARK RI TRANSFORMATION
-----------------------

Number of basis functions                ...   2076
Number of aux functions                  ...   4844
Number of operators                      ...      1
Generation of IJK                        ... NO
Generation of IAK                        ... YES
Generation of ABK                        ... NO
Orbital Range Operator  0:    0-  91 to   92-2075

Aux basis identifier                     ...   AUXC
Contraction scheme used                  ... SEGMENTED
Do orthogonalization                     ... YES
All operator combinations                ... NO
Transpose (ia|K)                         ... NO
Integral generator used                  ... LIBINT
Starting integral generation + trafo... 
Half trafo (segmented) done. Total time =  7.5 sec. integrals=  1.7 sec trafo=  5.2 sec
Integral generation and half transformation done (  7.5 sec)

Reading or making V^(-1/2)          ... done (  0.4 sec)
Sorting IAK integrals               ... done (  7.2 sec)

SHARK RI integral transformation done. Total time = 15.3 sec.

Opening buffers                              ... done

Starting loop over batches of integrals:

Operator 0  - window                       ... (  0- 91)x( 92-2075)
Operator 0  - Memory available             ...  4096 MB
Operator 0  - Memory needed per MO         ...  73.3 MB
Operator 0  - Number of orbitals per batch ... 1
Operator 0  - Number of batches            ... 1

OPERATOR  0   PASS   0:  MOs     0 ...    0 +    1 ...    1 +    2 ...    2 +    3 ...    3
                            +    4 ...    4 +    5 ...    5 +    6 ...    6 +    7 ...    7
                            +    8 ...    8 +    9 ...    9 +   10 ...   10 +   11 ...   11
                            +   12 ...   12 +   13 ...   13 +   14 ...   14 +   15 ...   15
                            +   16 ...   16 +   17 ...   17 +   18 ...   18 +   19 ...   19
                            +   20 ...   20 +   21 ...   21 +   22 ...   22 +   23 ...   23
                            +   24 ...   24 +   25 ...   25 +   26 ...   26 +   27 ...   27
                            +   28 ...   28 +   29 ...   29 +   30 ...   30 +   31 ...   31
                            +   32 ...   32 +   33 ...   33 +   34 ...   34 +   35 ...   35
                            +   36 ...   36 +   37 ...   37 +   38 ...   38 +   39 ...   39
                            +   40 ...   40 +   41 ...   41 +   42 ...   42 +   43 ...   43
                            +   44 ...   44 +   45 ...   45 +   46 ...   46 +   47 ...   47
                            +   48 ...   48 +   49 ...   49 +   50 ...   50 +   51 ...   51
                            +   52 ...   52 +   53 ...   53 +   54 ...   54 +   55 ...   55
                            +   56 ...   56 +   57 ...   57 +   58 ...   58 +   59 ...   59
                            +   60 ...   60 +   61 ...   61 +   62 ...   62 +   63 ...   63
                            +   64 ...   64 +   65 ...   65 +   66 ...   66 +   67 ...   67
                            +   68 ...   68 +   69 ...   69 +   70 ...   70 +   71 ...   71
                            +   72 ...   72 +   73 ...   73 +   74 ...   74 +   75 ...   75
                            +   76 ...   76 +   77 ...   77 +   78 ...   78 +   79 ...   79
                            +   80 ...   80 +   81 ...   81 +   82 ...   82 +   83 ...   83
                            +   84 ...   84 +   85 ...   85 +   86 ...   86 +   87 ...   87
                            +   88 ...   88 +   89 ...   89 +   90 ...   90 +   91 ...   91
  Reading integrals       ... ok
Time spent in pair loops =    73.970 sec

-----------------------------------------------
 RI-MP2 CORRELATION ENERGY:     -2.763157767 Eh
-----------------------------------------------


-------
TIMINGS
-------

Total time                :   93.478 sec
Integral trafo            :   15.704 sec ( 16.8%)
I/O of integrals          :    0.086 sec (  0.1%)
K(i,j) operators          :    0.676 sec (  0.7%)
T(i,j) pair energies      :    0.114 sec (  0.1%)
V**(-1/2)                 :    3.802 sec (  4.1%)


---------------------------------------
MP2 TOTAL ENERGY:    -1075.381458838 Eh
---------------------------------------

Maximum memory used throughout the entire MP2-calculation: 529.8 MB


-------------------------------------------------------------------------------
                          DFT DISPERSION CORRECTION                            
                                                                               
                                DFTD4 V3.4.0                                   
-------------------------------------------------------------------------------
The REV-DSD-PBEP86-2021 functional is recognized
A user input s6-coefficient scaling factor has been recognized
A user input a1-coefficient scaling factor has been recognized
A user input s8-coefficient scaling factor has been recognized
A user input a2-coefficient scaling factor has been recognized
A user input s9-coefficient scaling factor has been recognized
Active option DFTDOPT                   ...         5   

-------------------------   ----------------
Dispersion correction           -0.045875502
-------------------------   ----------------


-------------------------   --------------------
FINAL SINGLE POINT ENERGY     -1075.427334339638
-------------------------   --------------------



           ************************************************************
           *        Program running with 104 parallel MPI-processes   *
           *              working on a common directory               *
           ************************************************************

------------------------------------------------------------------------------
                              ORCA PROPERTY CALCULATIONS
------------------------------------------------------------------------------

GBWName                                 ... compas3D_hc_c28h16_0pent_1_qz_riri.gbw
Number of atoms                         ...     44
Number of basis functions               ...   2076
Max core memory                         ...   1024 MB

Electric properties:
Dipole moment                           ... YES
Quadrupole moment                       ...  NO
Static polarizability (Dipole/Dipole)   ...  NO
Static polarizability (Dipole/Quad.)    ...  NO
Static polarizability (Quad./Quad.)     ...  NO
Static polarizability (Velocity)        ...  NO

Atomic electric properties:
Dipole moment                           ...  NO
Quadrupole moment                       ...  NO
Static polarizability                   ...  NO

Choice of electric origin               ... Center of mass
Position of electric origin             ...     0.042752    -0.050780    -0.018231

General magnetic properties:
Magnetizability                         ...  NO

EPR properties:
g-Tensor (aka g-matrix)                 ...  NO
Zero-Field splitting spin-orbit         ...  NO
Zero-field splitting spin-spin          ...  NO
Hyperfine couplings                     ...  NO (   0 nuclei)
Quadrupole couplings                    ...  NO (   0 nuclei)
Contact density                         ...  NO (   0 nuclei)

NMR properties:
Chemical shifts                         ...  NO (   0 nuclei)
Spin-rotation constants                 ...  NO (   0 nuclei)
Spin-spin couplings                     ...  NO (   0 nuclei,    0 pairs)

Choice of magnetic origin               ... GIAO
Position of magnetic origin             ...     0.000000     0.000000     0.000000

Properties with geometric perturbations:
SCF Hessian                             ...  NO
IR spectrum                             ...  NO
VCD spectrum                            ...  NO
X-ray spectroscopy properties:
SCF XES/XAS/RIXS spectra                ...  NO


-------------
DIPOLE MOMENT
-------------

Method             : SCF
Type of density    : Electron Density
Multiplicity       :   1
Irrep              :   0
Energy             : -1072.6183010710306007 Eh
Relativity type    : 
Basis              : AO
                                X                 Y                 Z
Electronic contribution:      1.037347947      -1.245655054      -0.435860183
Nuclear contribution   :     -1.019435051       1.211902368       0.436781224
                        -----------------------------------------
Total Dipole Moment    :      0.017912896      -0.033752686       0.000921041
                        -----------------------------------------
Magnitude (a.u.)       :      0.038222558
Magnitude (Debye)      :      0.097154022



--------------------
Rotational spectrum 
--------------------
 
Rotational constants in cm-1:             0.008241             0.006072             0.003609 
Rotational constants in MHz :           247.063482           182.047127           108.192534 

Dipole components along the rotational axes: 
x,y,z [a.u.] :    -0.034618    -0.014830     0.006532 
x,y,z [Debye]:    -0.087991    -0.037694     0.016602 

 

Dipole moment calculation done in   0.5 sec 

Maximum memory used throughout the entire PROP-calculation: 284.4 MB

--------------------------------
SUGGESTED CITATIONS FOR THIS RUN
--------------------------------

Below you find a list of papers that are relevant to this ORCA run
We neither can nor want to force you to cite these papers, but we appreciate if you do
You receive ORCA, which is the product of decades of hard work by many enthusiastic individuals, for free
The only thing we kindly ask in return is that you cite our papers,
We deeply appreciate it, if you show your appreciation for ORCA by not just citing the generic ORCA reference.

Please note that relegating all ORCA citations to the supporting information does *not* help us.
SI sections are not indexed - citations you put there will not count into any citation statistics
But we need these citations in order to attract the funding resources that allow us to do what we are doing

Therefore, if you are a happy ORCA user, please consider citing a few of the papers listed below in the main body of your paper

In addition to the list printed below, the program has created the file compas3D_hc_c28h16_0pent_1_qz_riri.bibtex that contains the list in bibtex format
You can import this file easily into all common literature databanks and citation aid programs


List of essential papers. We consider these as the minimum necessary citations

  1. Neese,F.
     Software update: the ORCA program system, version 5.0
     WIRES Comput. Molec. Sci., 2022 12(1)e1606
     doi.org/10.1002/wcms.1606

List of papers to cite with high priority. The work reported in these papers was absolutely
necessary for this run to complete.
Our perspective: the developers of density functionals and basis sets usually get cited in chemistry papers
Good! But without the algorithms to do something with them, the functionals or basis sets would not do anything.
Hence, in our opinion, the algorithm design and method developments papers are equally worthy of getting cited

  1. Neese,F.
     An improvement of the resolution of the identity approximation for the formation of the Coulomb matrix
     J. Comp. Chem., 2003 24(14)1740-1747
     doi.org/10.1002/jcc.10318
  2. Kossmann,S.; Neese,F.
     Comparison of two efficient approximate Hartee-Fock approaches
     Chem. Phys. Lett., 2009 481 240-243
     doi.org/10.1016/j.cplett.2009.09.073
  3. Neese,F.
     The SHARK Integral Generation and Digestion System
     J. Comp. Chem., 2022  1-16
     doi.org/10.1002/jcc.26942
  4. Caldeweyher,E.; Bannwarth,C.; Grimme,S.
     Extension of the D3 dispersion coefficient model
     J. Chem. Phys., 2017 147 034112
     doi.org/10.1063/1.4993215
  5. Caldeweyher,E.; Ehlert,S.; Hansen,A.; Neugebauer,H.; Spicher,S.; Bannwarth,C.; Grimme,S.
     A generally applicable atomic-charge dependent London dispersion correction
     J. Chem. Phys., 2019 150 154122
     doi.org/10.1063/1.5090222
  6. Caldeweyher,E.; Mewes,J.; Ehlert,S.; Grimme,S.
     Extension and evaluation of the D4 London-dispersion model for periodic systems
     Phys. Chem. Chem. Phys., 2020 22(16)8499-8512
     doi.org/10.1039/D0CP00502A
  7. Wittmann,L.; Gordiy,I.; Friede,M.; Helmich-Paris,B.; Grimme,S.; Hansen,A.; Bursch,M.
     Extension of the D3 and D4 London Dispersion Corrections to the full Actinides Series
     Phys. Chem. Chem. Phys., 2024 26(32)21379-21394
     doi.org/https://doi.org/10.1039/D4CP01514B 

List of suggested additional citations. These are papers that are important in the 'surrounding' of 
of this run, or papers that preceded the highly important papers. If you like your results we are grateful for a citation.

  1. Neese,F.
     The ORCA program system
     WIRES Comput. Molec. Sci., 2012 2(1)73-78
     doi.org/10.1002/wcms.81
  2. Neese,F.
     Software update: the ORCA program system, version 4.0
     WIRES Comput. Molec. Sci., 2018 8(1)1-6
     doi.org/10.1002/wcms.1327
  3. Neese,F.; Wennmohs,F.; Becker,U.; Riplinger,C.
     The ORCA quantum chemistry program package
     J. Chem. Phys., 2020 152 Art. No. L224108
     doi.org/10.1063/5.0004608

List of optional additional citations

  1. Neese,F.
     Approximate second-order SCF convergence for spin unrestricted wavefunctions
     Chem. Phys. Lett., 2000 325(1-3)93-98
     doi.org/10.1016/s0009-2614(00)00662-x

Timings for individual modules:

Sum of individual times          ...      441.918 sec (=   7.365 min)
Startup calculation              ...       30.295 sec (=   0.505 min)   6.9 %
SCF iterations                   ...      279.845 sec (=   4.664 min)  63.3 %
Property calculations            ...       19.362 sec (=   0.323 min)   4.4 %
MP2 module                       ...      112.416 sec (=   1.874 min)  25.4 %
                             ****ORCA TERMINATED NORMALLY****
TOTAL RUN TIME: 0 days 0 hours 7 minutes 54 seconds 623 msec
