
                                 *****************
                                 * O   R   C   A *
                                 *****************

                                            #,                                       
                                            ###                                      
                                            ####                                     
                                            #####                                    
                                            ######                                   
                                           ########,                                 
                                     ,,################,,,,,                         
                               ,,#################################,,                 
                          ,,##########################################,,             
                       ,#########################################, ''#####,          
                    ,#############################################,,   '####,        
                  ,##################################################,,,,####,       
                ,###########''''           ''''###############################       
              ,#####''   ,,,,##########,,,,          '''####'''          '####       
            ,##' ,,,,###########################,,,                        '##       
           ' ,,###''''                  '''############,,,                           
         ,,##''                                '''############,,,,        ,,,,,,###''
      ,#''                                            '''#######################'''  
     '                                                          ''''####''''         
             ,#######,   #######,   ,#######,      ##                                
            ,#'     '#,  ##    ##  ,#'     '#,    #''#        ,####,   ,####,        
            ##       ##  ##   ,#'  ##            #'  '#       #'       #'  '#        
            ##       ##  #######   ##           ,######,      #####,   #    #        
            '#,     ,#'  ##    ##  '#,     ,#' ,#      #,     #,   #   #,  ,#        
             '#######'   ##     ##  '#######'  #'      '#     '####' # '####'        



                #########################################################
                #                        -***-                          #
                #          Department of theory and spectroscopy        #
                #                                                       #
                #                      Frank Neese                      #
                #                                                       #
                #     Directorship, Architecture, Infrastructure        #
                #                    SHARK, DRIVERS                     #
                #        Core code/Algorithms in most modules           #
                #                                                       #
                #        Max Planck Institute fuer Kohlenforschung      #
                #                Kaiser Wilhelm Platz 1                 #
                #                 D-45470 Muelheim/Ruhr                 #
                #                      Germany                          #
                #                                                       #
                #                  All rights reserved                  #
                #                        -***-                          #
                #########################################################


                         Program Version 6.0.1  -  RELEASE   -


 With contributions from (in alphabetic order):
[Max-Planck-Institut fuer Kohlenforschung]                               
  Daniel Aravena         : Magnetic Suceptibility                        
  Michael Atanasov       : Ab Initio Ligand Field Theory (pilot matlab implementation)
  Alexander A. Auer      : GIAO ZORA, VPT2 properties, NMR spectrum      
  Ute Becker             : All parallelization in ORCA, NUMFREQ, NUMCALC 
  Giovanni Bistoni       : ED, misc. LED, open-shell LED, HFLD           
  Martin Brehm           : Molecular dynamics                            
  Dmytro Bykov           : pre 5.0 version of the SCF Hessian            
  Marcos Casanova-Páez   : Triplet and SCS-CIS(D). UHF-(DLPNO)-IP/EA/STEOM-CCSD. UHF-CVS-IP/STEOM-CCSD   
  Vijay G. Chilkuri      : MRCI spin determinant printing, contributions to CSF-ICE 
  Pauline Colinet        : FMM embedding                                 
  Dipayan Datta          : RHF DLPNO-CCSD density                        
  Achintya Kumar Dutta   : EOM-CC, STEOM-CC                              
  Nicolas Foglia         : Exact transition moments, OPA infrastructure, MCD improvements    
  Dmitry Ganyushin       : Spin-Orbit,Spin-Spin,Magnetic field MRCI      
  Miquel Garcia-Rates    : C-PCM and meta-GGA Hessian, CCSD/C-PCM, Gaussian charge scheme 
  Tiago L. C. Gouveia    : GS-ROHF, GS-ROCIS                             
  Yang Guo               : DLPNO-NEVPT2, F12-NEVPT2, CIM, IAO-localization        
  Andreas Hansen         : Spin unrestricted coupled pair/coupled cluster methods 
  Ingolf Harden          : AUTO-CI MPn and infrastructure                
  Benjamin Helmich-Paris : MC-RPA, TRAH-(SCF,CASSCF), AVAS, COSX integrals, SCF dyn. polar. 
  Lee Huntington         : MR-EOM, pCC                                   
  Robert Izsak           : Overlap fitted RIJCOSX, COSX-SCS-MP3, EOM     
  Riya Kayal             : Wick's Theorem for AUTO-CI, AUTO-CI UHF-CCSDT 
  Emily Kempfer          : AUTO-CI, RHF CISDT and CCSDT                  
  Christian Kollmar      : KDIIS, OOCD, Brueckner-CCSD(T), CCSD density, CASPT2, CASPT2-K, improved NEVPT2 
  Axel Koslowski         : Symmetry handling                             
  Simone Kossmann        : meta-GGA functionals, TD-DFT gradient, OOMP2, (MP2 Hessian; deprecated post 5.0) 
  Lucas Lang             : DCDCAS                                        
  Marvin Lechner         : AUTO-CI (C++ implementation), FIC-MRCC        
  Spencer Leger          : CASSCF response                               
  Dagmar Lenk            : GEPOL surface, SMD, ORCA-2-JSON               
  Dimitrios Liakos       : Extrapolation schemes; Compound Job, initial MDCI parallelization 
  Dimitrios Manganas     : Further ROCIS development; embedding schemes. LFT, Crystal Embedding 
  Dimitrios Pantazis     : SARC Basis sets                               
  Anastasios Papadopoulos: AUTO-CI, single reference methods and gradients 
  Taras Petrenko         : pre 6.0 DFT Hessian and TD-DFT gradient, (ASA, deprecated), ECA, 1-Electron XAS/XES, NRVS 
  Peter Pinski           : DLPNO-MP2, DLPNO-MP2 Gradient                 
  Christoph Reimann      : Effective Core Potentials                     
  Marius Retegan         : Local ZFS, SOC                                
  Christoph Riplinger    : Optimizer, TS searches, QM/MM, DLPNO-CCSD(T), (RO)-DLPNO pert. Triples 
  Michael Roemelt        : Original ROCIS implementation                 
  Masaaki Saitow         : Open-shell DLPNO-CCSD energy and density      
  Barbara Sandhoefer     : DKH picture change effects                    
  Kantharuban Sivalingam : CASSCF convergence/infrastructure, NEVPT2 and variants, FIC-MRCI 
  Bernardo de Souza      : ESD, SOC TD-DFT                               
  Georgi L. Stoychev     : AutoAux, RI-MP2 NMR, DLPNO-MP2 response, X2C  
  Van Anh Tran           : RI-MP2 g-tensors                              
  Willem Van den Heuvel  : Paramagnetic NMR                              
  Zikuan Wang            : NOTCH, Electric field optimization            
  Frank Wennmohs         : Technical directorship and infrastructure     
  Hang Xu                : AUTO-CI-Response properties                   
                                                                         
[FACCTs GmbH]                                                            
  Markus Bursch, Miquel Garcia-Rates, Christoph Riplinger, Bernardo de Souza, Georgi L. Stoychev 
                                                                 
  APM, Basis sets (HGBS, AHGBS, def-TZVP (Ac-Lr), def2-XVPD (La-Lu)), CI-OPT, improved COSX, DLPNO-Multilevel,           
  DOCKER, DRACO, updates on ESD, GOAT, IRC, LR-CPCM, MBIS, meta-GGA TD-DFT gradient, ML-optimized integration grids, 
  MM, NACMEs, nearIR, NEB, NEB-TS, NL-DFT gradient (VV10), 2- and 3-layer-ONIOM, interface openCOSMO-RS, QMMM,   
  Crystal-QMMM, SF, symmetry and pop. for TD-DFT, r2SCAN hybrids, SOLVATOR                                   
                                                                         
[Other institutions]                                                     
  V. Asgeirsson          : NEB                                           
  Christoph Bannwarth    : sTDA-DFT, sTD-DFT, PBEh-3c, B97-3c, D3        
  Sebastian Ehlert       : rSCAN, r2SCAN, r2SCAN-3c, D4, dhf basis sets  
  Marvin Friede          : D4 for Fr, Ra, Ac-Lr                          
  Lars Goerigk           : TD-DFT with DH, B97 family of functionals     
  Stefan Grimme          : VdW corrections, initial TS optimization, DFT functionals, gCP, sTDA/sTD-DF 
  Waldemar Hujo          : DFT-NL                                        
  H. Jonsson             : NEB                                           
  Holger Kruse           : gCP                                           
  Marcel Mueller         : wB97X-3c, vDZP basis set                      
  Hagen Neugebauer       : wr2SCAN                                       
  Tobias Risthaus        : range-separated hybrid DFT                    
  Lukas Wittmann         : regularized MP2, r2SCAN double-hybrids, wr2SCAN        
                                                                         
We gratefully acknowledge several colleagues who have allowed us to      
interface, adapt or use parts of their codes:                            
  Ed Valeev, F. Pavosevic, A. Kumar             : LibInt (2-el integral package), F12 methods 
  Garnet Chan, S. Sharma, J. Yang, R. Olivares  : DMRG                   
  Ulf Ekstrom                                   : XCFun DFT Library      
  Mihaly Kallay                                 : mrcc  (arbitrary order and MRCC methods)
  Frank Weinhold                                : gennbo (NPA and NBO analysis)           
  Simon Mueller                                 : openCOSMO-RS                            
  Christopher J. Cramer and Donald G. Truhlar   : smd solvation model                     
  S Lehtola, MJT Oliveira, MAL Marques          : LibXC Library                           
  Liviu Ungur et al                             : ANISO software                          


 Your calculation uses the libint2 library for the computation of 2-el integrals
 For citations please refer to: http://libint.valeyev.net

 Your ORCA version has been built with support for libXC version: 6.2.2
 For citations please refer to: https://libxc.gitlab.io

 This ORCA versions uses:
   CBLAS   interface :  Fast vector & matrix operations
   LAPACKE interface :  Fast linear algebra routines
   SCALAPACK package :  Parallel linear algebra routines
   Shared memory     :  Shared parallel matrices
   BLAS/LAPACK       :  OpenBLAS 0.3.27  USE64BITINT DYNAMIC_ARCH NO_AFFINITY SapphireRapids SINGLE_THREADED
        Core in use  :  SapphireRapids
   Copyright (c) 2011-2014, The OpenBLAS Project


Warning! Weird basis set assignment to AuxJK basis!


***************************************
The coordinates will be read from file: /g/data/kx58/rs2200/dhdft/inputs/compas3D-xyzs/hc_c34h18_0pent_1.xyz
***************************************


Your calculation utilizes the atom-pairwise dispersion correction
based on EEQ partial charges (D4)


================================================================================

----- Orbital basis set information -----
Your calculation utilizes the basis: def2-QZVPP
   F. Weigend and R. Ahlrichs, Phys. Chem. Chem. Phys. 7, 3297 (2005).

----- AuxC basis set information -----
Your calculation utilizes the auxiliary basis: def2-QZVPP/C
  H-La, Hf-Rn : A. Hellweg, C. Hattig, S. Hofener and W. Klopper, Theor. Chem. Acc. 117, 587 (2007).
        Ce-Lu : J. Chmela and M. E. Harding, Mol. Phys. (2018).

----- AuxJK basis set information -----
Your calculation utilizes the auxiliary basis: def2-QZVPP/C
  H-La, Hf-Rn : A. Hellweg, C. Hattig, S. Hofener and W. Klopper, Theor. Chem. Acc. 117, 587 (2007).
        Ce-Lu : J. Chmela and M. E. Harding, Mol. Phys. (2018).

================================================================================
                                        WARNINGS
                       Please study these warnings very carefully!
================================================================================


WARNING: No MP2 level density has been requested!
         To calculate MP2 level properties use
         %mp2 Density relaxed end
         or
         %mp2 Density unrelaxed end
         Otherwise for double-hybrid DFT only the energy is correct!

================================================================================
                                       INPUT FILE
================================================================================
NAME = compas3D_hc_c34h18_0pent_1_qz_riri.inp
|  1> ! RKS revDSD-PBEP86-D4/2021 defgrid3  RIJK NOPOP NoFrozencore NoUseSym
|  2> 
|  3> %basis
|  4> Basis "def2-QZVPP"
|  5> AuxJK "def2-QZVPP/C"
|  6> AuxC "def2-QZVPP/C"
|  7> end
|  8> 
|  9> %method
| 10> ScalHFX 0.69
| 11> ScalDFX 0.31
| 12> ScalDFC 0.4038
| 13> ScalLDAC 0.4038
| 14> 
| 15> D4S6 0.4612
| 16> D4S8 0.0
| 17> D4A1 0.44
| 18> D4A2 3.60
| 19> end
| 20> 
| 21> %mp2
| 22> PS 0.5979
| 23> PT 0.0571
| 24> 
| 25> end
| 26> 
| 27> %pal
| 28> nprocs 104
| 29> end
| 30> 
| 31> *XYZFILE 0 1 /g/data/kx58/rs2200/dhdft/inputs/compas3D-xyzs/hc_c34h18_0pent_1.xyz
| 32> 
| 33>                          ****END OF INPUT****
================================================================================

                       ****************************
                       * Single Point Calculation *
                       ****************************

---------------------------------
CARTESIAN COORDINATES (ANGSTROEM)
---------------------------------
  C      2.635269   -1.551903   -0.605907
  C      1.886070   -2.741419   -0.782227
  C      0.452031   -2.684184   -0.885816
  C     -0.238431   -1.461495   -0.685034
  C      0.509093   -0.264400   -0.252470
  C      1.928922   -0.266717   -0.451910
  C      4.024506   -1.643338   -0.541814
  C      4.678047   -2.870953   -0.657403
  C      3.953395   -4.030929   -0.855424
  C      2.553046   -3.984600   -0.932509
  C      1.780002   -5.168056   -1.198189
  C      0.439306   -5.102712   -1.365188
  C     -0.267414   -3.855825   -1.242901
  C     -1.644995   -3.772232   -1.490258
  C     -2.287936   -2.549073   -1.421590
  C     -1.590870   -1.408842   -1.028003
  C     -0.095127    0.898745    0.261784
  C      0.583467    2.144259    0.132031
  C      1.953854    2.158686   -0.250390
  C      2.613311    0.932205   -0.446737
  C     -0.101361    3.387554    0.330998
  C      0.602371    4.565854    0.173619
  C      1.966580    4.574489   -0.181604
  C      2.632498    3.396885   -0.390867
  C     -1.371940    0.912133    1.007174
  C     -2.104336    2.133604    1.113454
  C     -1.531871    3.370061    0.688770
  C     -3.404313    2.125778    1.694836
  C     -4.164673    3.322714    1.703100
  C     -3.637391    4.482002    1.194576
  C     -2.315414    4.509167    0.709850
  C     -1.850481   -0.201180    1.675531
  C     -3.106305   -0.193801    2.309584
  C     -3.892731    0.930364    2.278919
  H      4.624464   -0.749415   -0.377347
  H      5.767215   -2.908741   -0.592669
  H      4.460816   -4.992137   -0.962360
  H      2.307727   -6.119450   -1.294351
  H     -0.136169   -5.999994   -1.603475
  H     -2.192135   -4.675127   -1.770024
  H     -3.347955   -2.470055   -1.670378
  H     -2.119908   -0.459529   -0.981466
  H      3.685958    0.957640   -0.634320
  H      0.103650    5.521438    0.332826
  H      2.485147    5.528915   -0.290762
  H      3.687864    3.390740   -0.671347
  H     -5.170681    3.305035    2.127865
  H     -4.227613    5.400443    1.191148
  H     -1.908326    5.458592    0.362501
  H     -1.260995   -1.116611    1.685390
  H     -3.458420   -1.099331    2.807501
  H     -4.886817    0.931747    2.731284

----------------------------
CARTESIAN COORDINATES (A.U.)
----------------------------
  NO LB      ZA    FRAG     MASS         X           Y           Z
   0 C     6.0000    0    12.011    4.979937   -2.932672   -1.144999
   1 C     6.0000    0    12.011    3.564156   -5.180531   -1.478195
   2 C     6.0000    0    12.011    0.854214   -5.072372   -1.673950
   3 C     6.0000    0    12.011   -0.450570   -2.761825   -1.294527
   4 C     6.0000    0    12.011    0.962046   -0.499644   -0.477099
   5 C     6.0000    0    12.011    3.645134   -0.504023   -0.853987
   6 C     6.0000    0    12.011    7.605214   -3.105458   -1.023880
   7 C     6.0000    0    12.011    8.840228   -5.425316   -1.242313
   8 C     6.0000    0    12.011    7.470835   -7.617351   -1.616518
   9 C     6.0000    0    12.011    4.824557   -7.529803   -1.762186
  10 C     6.0000    0    12.011    3.363716   -9.766211   -2.264249
  11 C     6.0000    0    12.011    0.830168   -9.642729   -2.579831
  12 C     6.0000    0    12.011   -0.505340   -7.286454   -2.348742
  13 C     6.0000    0    12.011   -3.108589   -7.128486   -2.816179
  14 C     6.0000    0    12.011   -4.323573   -4.817050   -2.686415
  15 C     6.0000    0    12.011   -3.006308   -2.662325   -1.942645
  16 C     6.0000    0    12.011   -0.179764    1.698382    0.494700
  17 C     6.0000    0    12.011    1.102593    4.052063    0.249502
  18 C     6.0000    0    12.011    3.692249    4.079325   -0.473169
  19 C     6.0000    0    12.011    4.938441    1.761613   -0.844210
  20 C     6.0000    0    12.011   -0.191545    6.401548    0.625496
  21 C     6.0000    0    12.011    1.138317    8.628213    0.328092
  22 C     6.0000    0    12.011    3.716297    8.644532   -0.343181
  23 C     6.0000    0    12.011    4.974701    6.419183   -0.738631
  24 C     6.0000    0    12.011   -2.592591    1.723683    1.903284
  25 C     6.0000    0    12.011   -3.976619    4.031928    2.104123
  26 C     6.0000    0    12.011   -2.894817    6.368492    1.301587
  27 C     6.0000    0    12.011   -6.433220    4.017138    3.202775
  28 C     6.0000    0    12.011   -7.870091    6.279019    3.218392
  29 C     6.0000    0    12.011   -6.873673    8.469756    2.257421
  30 C     6.0000    0    12.011   -4.375498    8.521090    1.341421
  31 C     6.0000    0    12.011   -3.496903   -0.380175    3.166294
  32 C     6.0000    0    12.011   -5.870066   -0.366231    4.364482
  33 C     6.0000    0    12.011   -7.356195    1.758134    4.306533
  34 H     1.0000    0     1.008    8.738971   -1.416190   -0.713083
  35 H     1.0000    0     1.008   10.898457   -5.496723   -1.119982
  36 H     1.0000    0     1.008    8.429720   -9.433772   -1.818596
  37 H     1.0000    0     1.008    4.360973  -11.564085   -2.445968
  38 H     1.0000    0     1.008   -0.257323  -11.338345   -3.030128
  39 H     1.0000    0     1.008   -4.142536   -8.834709   -3.344861
  40 H     1.0000    0     1.008   -6.326719   -4.667727   -3.156557
  41 H     1.0000    0     1.008   -4.006045   -0.868385   -1.854703
  42 H     1.0000    0     1.008    6.965452    1.809677   -1.198692
  43 H     1.0000    0     1.008    0.195871   10.434006    0.628949
  44 H     1.0000    0     1.008    4.696248   10.448136   -0.549461
  45 H     1.0000    0     1.008    6.969054    6.407571   -1.268661
  46 H     1.0000    0     1.008   -9.771171    6.245612    4.021082
  47 H     1.0000    0     1.008   -7.989030   10.205358    2.250943
  48 H     1.0000    0     1.008   -3.606213   10.315245    0.685027
  49 H     1.0000    0     1.008   -2.382935   -2.110089    3.184925
  50 H     1.0000    0     1.008   -6.535467   -2.077435    5.305409
  51 H     1.0000    0     1.008   -9.234747    1.760747    5.161379

--------------------------------
INTERNAL COORDINATES (ANGSTROEM)
--------------------------------
 C      0   0   0     0.000000000000     0.00000000     0.00000000
 C      1   0   0     1.416805110392     0.00000000     0.00000000
 C      2   1   0     1.438914508824   120.16996606     0.00000000
 C      3   2   1     1.418456745974   120.61171352   353.89329316
 C      4   3   2     1.476123282612   119.60517862   354.71172389
 C      5   4   3     1.433769724425   117.34925093    19.02545291
 C      1   2   3     1.393716634566   118.53776553   181.51623675
 C      7   1   2     1.395534844180   121.37958330     0.48623751
 C      8   7   1     1.381982485278   120.30923632     0.76198723
 C      9   8   7     1.403234701716   120.22774114   359.55244066
 C     10   9   8     1.438315312714   121.28810092   177.15548943
 C     11  10   9     1.352635838908   121.04941800   184.71659214
 C      3   2   1     1.420512186468   119.34332085   171.48362142
 C     13   3   2     1.402105924882   119.52364217   187.05556801
 C     14  13   3     1.383548916000   120.03496371     1.75372482
 C     15  14  13     1.393176080052   120.33605506   356.08315826
 C      5   4   3     1.407993321140   124.03201934   194.93479446
 C     17   5   4     1.424300702906   118.99109639   205.82219768
 C     18  17   5     1.422819064220   119.48760289   346.93724389
 C      6   5   4     1.380518165143   119.27504868   160.82398190
 C     18  17   5     1.433303353614   121.21557918   164.58291345
 C     21  18  17     1.381448093742   118.72854339   180.90712358
 C     22  21  18     1.409723849641   121.79627466     0.30183352
 C     23  22  21     1.368937611012   120.26451291     0.46069908
 C     17   5   4     1.478525390544   124.20830937    29.43514504
 C     25  17   5     1.428177305204   119.21691616   199.74179953
 C     26  25  17     1.427198947773   120.87187032   350.58130086
 C     26  25  17     1.424080707536   119.59123014   172.85307789
 C     28  26  25     1.418051158343   119.15754717   184.79665724
 C     29  28  26     1.371339269584   120.34600239   358.00397633
 C     27  26  25     1.382731125914   118.80808808   174.84131662
 C     25  17   5     1.383896058177   122.33101140    23.57538889
 C     32  25  17     1.406830723930   121.47465934   183.99034403
 C     33  32  25     1.372280255304   120.38392178     0.00000000
 H      7   1   2     1.089080681971   120.14633283   181.80983207
 H      8   7   1     1.091743766433   119.52082441   180.61652424
 H      9   8   7     1.092168465966   120.60549212   179.02606656
 H     11  10   9     1.092196143626   118.24907395     2.75712242
 H     12  11  10     1.092275908117   120.62770566   177.70917492
 H     14  13   3     1.092176945950   119.21603399   179.65280957
 H     15  14  13     1.091686740370   120.25866856   176.41292754
 H     16  15  14     1.087768858302   118.88208364   180.05045229
 H     20   6   5     1.089223370512   120.51989746   182.36320973
 H     22  21  18     1.089592298022   119.88295200   180.78422782
 H     23  22  21     1.091676418215   119.35597633   180.28620254
 H     24  23  22     1.092018410496   120.94570359   179.68717239
 H     29  28  26     1.092149749972   118.84961481   178.49562032
 H     30  29  28     1.091745498840   120.29613564   179.31301138
 H     31  27  26     1.089853650647   120.07541141   181.79234017
 H     32  25  17     1.088855094561   119.57182081     1.88564140
 H     33  32  25     1.091737934803   119.28208746   178.63465906
 H     34  33  32     1.092173832037   120.89012335   177.35450978

---------------------------
INTERNAL COORDINATES (A.U.)
---------------------------
 C      0   0   0     0.000000000000     0.00000000     0.00000000
 C      1   0   0     2.677373643782     0.00000000     0.00000000
 C      2   1   0     2.719154351803   120.16996606     0.00000000
 C      3   2   1     2.680494782705   120.61171352   353.89329316
 C      4   3   2     2.789468744042   119.60517862   354.71172389
 C      5   4   3     2.709432118270   117.34925093    19.02545291
 C      1   2   3     2.633742747620   118.53776553   181.51623675
 C      7   1   2     2.637178665845   121.37958330     0.48623751
 C      8   7   1     2.611568419051   120.30923632     0.76198723
 C      9   8   7     2.651729287858   120.22774114   359.55244066
 C     10   9   8     2.718022035255   121.28810092   177.15548943
 C     11  10   9     2.556111294463   121.04941800   184.71659214
 C      3   2   1     2.684379002322   119.34332085   171.48362142
 C     13   3   2     2.649596208776   119.52364217   187.05556801
 C     14  13   3     2.614528544124   120.03496371     1.75372482
 C     15  14  13     2.632721247629   120.33605506   356.08315826
 C      5   4   3     2.660721775345   124.03201934   194.93479446
 C     17   5   4     2.691538260845   118.99109639   205.82219768
 C     18  17   5     2.688738369498   119.48760289   346.93724389
 C      6   5   4     2.608801255024   119.27504868   160.82398190
 C     18  17   5     2.708550805162   121.21557918   164.58291345
 C     21  18  17     2.610558565400   118.72854339   180.90712358
 C     22  21  18     2.663992000279   121.79627466     0.30183352
 C     23  22  21     2.586917179238   120.26451291     0.46069908
 C     17   5   4     2.794008070178   124.20830937    29.43514504
 C     25  17   5     2.698863977517   119.21691616   199.74179953
 C     26  25  17     2.697015149911   120.87187032   350.58130086
 C     26  25  17     2.691122529844   119.59123014   172.85307789
 C     28  26  25     2.679728333158   119.15754717   184.79665724
 C     29  28  26     2.591455656205   120.34600239   358.00397633
 C     27  26  25     2.612983144826   118.80808808   174.84131662
 C     25  17   5     2.615184547769   122.33101140    23.57538889
 C     32  25  17     2.658524785014   121.47465934   183.99034403
 C     33  32  25     2.593233861513   120.38392178     0.00000000
 H      7   1   2     2.058064226669   120.14633283   181.80983207
 H      8   7   1     2.063096726974   119.52082441   180.61652424
 H      9   8   7     2.063899292780   120.60549212   179.02606656
 H     11  10   9     2.063951595977   118.24907395     2.75712242
 H     12  11  10     2.064102329021   120.62770566   177.70917492
 H     14  13   3     2.063915317627   119.21603399   179.65280957
 H     15  14  13     2.062988963333   120.25866856   176.41292754
 H     16  15  14     2.055585239198   118.88208364   180.05045229
 H     20   6   5     2.058333868935   120.51989746   182.36320973
 H     22  21  18     2.059031040891   119.88295200   180.78422782
 H     23  22  21     2.062969457287   119.35597633   180.28620254
 H     24  23  22     2.063615729037   120.94570359   179.68717239
 H     29  28  26     2.063863924678   118.84961481   178.49562032
 H     30  29  28     2.063100000749   120.29613564   179.31301138
 H     31  27  26     2.059524925778   120.07541141   181.79234017
 H     32  25  17     2.057637928246   119.57182081     1.88564140
 H     33  32  25     2.063085706791   119.28208746   178.63465906
 H     34  33  32     2.063909433185   120.89012335   177.35450978

---------------------
BASIS SET INFORMATION
---------------------
There are 2 groups of distinct atoms

 Group   1 Type C   : 15s8p3d2f1g contracted to 7s4p3d2f1g pattern {8211111/5111/111/11/1}
 Group   2 Type H   : 7s3p2d1f contracted to 4s3p2d1f pattern {4111/111/11/1}

Atom   0C    basis set group =>   1
Atom   1C    basis set group =>   1
Atom   2C    basis set group =>   1
Atom   3C    basis set group =>   1
Atom   4C    basis set group =>   1
Atom   5C    basis set group =>   1
Atom   6C    basis set group =>   1
Atom   7C    basis set group =>   1
Atom   8C    basis set group =>   1
Atom   9C    basis set group =>   1
Atom  10C    basis set group =>   1
Atom  11C    basis set group =>   1
Atom  12C    basis set group =>   1
Atom  13C    basis set group =>   1
Atom  14C    basis set group =>   1
Atom  15C    basis set group =>   1
Atom  16C    basis set group =>   1
Atom  17C    basis set group =>   1
Atom  18C    basis set group =>   1
Atom  19C    basis set group =>   1
Atom  20C    basis set group =>   1
Atom  21C    basis set group =>   1
Atom  22C    basis set group =>   1
Atom  23C    basis set group =>   1
Atom  24C    basis set group =>   1
Atom  25C    basis set group =>   1
Atom  26C    basis set group =>   1
Atom  27C    basis set group =>   1
Atom  28C    basis set group =>   1
Atom  29C    basis set group =>   1
Atom  30C    basis set group =>   1
Atom  31C    basis set group =>   1
Atom  32C    basis set group =>   1
Atom  33C    basis set group =>   1
Atom  34H    basis set group =>   2
Atom  35H    basis set group =>   2
Atom  36H    basis set group =>   2
Atom  37H    basis set group =>   2
Atom  38H    basis set group =>   2
Atom  39H    basis set group =>   2
Atom  40H    basis set group =>   2
Atom  41H    basis set group =>   2
Atom  42H    basis set group =>   2
Atom  43H    basis set group =>   2
Atom  44H    basis set group =>   2
Atom  45H    basis set group =>   2
Atom  46H    basis set group =>   2
Atom  47H    basis set group =>   2
Atom  48H    basis set group =>   2
Atom  49H    basis set group =>   2
Atom  50H    basis set group =>   2
Atom  51H    basis set group =>   2
---------------------------------
AUXILIARY/C BASIS SET INFORMATION
---------------------------------
There are 2 groups of distinct atoms

 Group   1 Type C   : 9s8p7d5f3g1h contracted to 9s8p7d5f3g1h pattern {111111111/11111111/1111111/11111/111/1}
 Group   2 Type H   : 6s4p3d2f1g contracted to 6s4p3d2f1g pattern {111111/1111/111/11/1}

Atom   0C    basis set group =>   1
Atom   1C    basis set group =>   1
Atom   2C    basis set group =>   1
Atom   3C    basis set group =>   1
Atom   4C    basis set group =>   1
Atom   5C    basis set group =>   1
Atom   6C    basis set group =>   1
Atom   7C    basis set group =>   1
Atom   8C    basis set group =>   1
Atom   9C    basis set group =>   1
Atom  10C    basis set group =>   1
Atom  11C    basis set group =>   1
Atom  12C    basis set group =>   1
Atom  13C    basis set group =>   1
Atom  14C    basis set group =>   1
Atom  15C    basis set group =>   1
Atom  16C    basis set group =>   1
Atom  17C    basis set group =>   1
Atom  18C    basis set group =>   1
Atom  19C    basis set group =>   1
Atom  20C    basis set group =>   1
Atom  21C    basis set group =>   1
Atom  22C    basis set group =>   1
Atom  23C    basis set group =>   1
Atom  24C    basis set group =>   1
Atom  25C    basis set group =>   1
Atom  26C    basis set group =>   1
Atom  27C    basis set group =>   1
Atom  28C    basis set group =>   1
Atom  29C    basis set group =>   1
Atom  30C    basis set group =>   1
Atom  31C    basis set group =>   1
Atom  32C    basis set group =>   1
Atom  33C    basis set group =>   1
Atom  34H    basis set group =>   2
Atom  35H    basis set group =>   2
Atom  36H    basis set group =>   2
Atom  37H    basis set group =>   2
Atom  38H    basis set group =>   2
Atom  39H    basis set group =>   2
Atom  40H    basis set group =>   2
Atom  41H    basis set group =>   2
Atom  42H    basis set group =>   2
Atom  43H    basis set group =>   2
Atom  44H    basis set group =>   2
Atom  45H    basis set group =>   2
Atom  46H    basis set group =>   2
Atom  47H    basis set group =>   2
Atom  48H    basis set group =>   2
Atom  49H    basis set group =>   2
Atom  50H    basis set group =>   2
Atom  51H    basis set group =>   2
----------------------------------
AUXILIARY/JK BASIS SET INFORMATION
----------------------------------
There are 2 groups of distinct atoms

 Group   1 Type C   : 9s8p7d5f3g1h contracted to 9s8p7d5f3g1h pattern {111111111/11111111/1111111/11111/111/1}
 Group   2 Type H   : 6s4p3d2f1g contracted to 6s4p3d2f1g pattern {111111/1111/111/11/1}

Atom   0C    basis set group =>   1
Atom   1C    basis set group =>   1
Atom   2C    basis set group =>   1
Atom   3C    basis set group =>   1
Atom   4C    basis set group =>   1
Atom   5C    basis set group =>   1
Atom   6C    basis set group =>   1
Atom   7C    basis set group =>   1
Atom   8C    basis set group =>   1
Atom   9C    basis set group =>   1
Atom  10C    basis set group =>   1
Atom  11C    basis set group =>   1
Atom  12C    basis set group =>   1
Atom  13C    basis set group =>   1
Atom  14C    basis set group =>   1
Atom  15C    basis set group =>   1
Atom  16C    basis set group =>   1
Atom  17C    basis set group =>   1
Atom  18C    basis set group =>   1
Atom  19C    basis set group =>   1
Atom  20C    basis set group =>   1
Atom  21C    basis set group =>   1
Atom  22C    basis set group =>   1
Atom  23C    basis set group =>   1
Atom  24C    basis set group =>   1
Atom  25C    basis set group =>   1
Atom  26C    basis set group =>   1
Atom  27C    basis set group =>   1
Atom  28C    basis set group =>   1
Atom  29C    basis set group =>   1
Atom  30C    basis set group =>   1
Atom  31C    basis set group =>   1
Atom  32C    basis set group =>   1
Atom  33C    basis set group =>   1
Atom  34H    basis set group =>   2
Atom  35H    basis set group =>   2
Atom  36H    basis set group =>   2
Atom  37H    basis set group =>   2
Atom  38H    basis set group =>   2
Atom  39H    basis set group =>   2
Atom  40H    basis set group =>   2
Atom  41H    basis set group =>   2
Atom  42H    basis set group =>   2
Atom  43H    basis set group =>   2
Atom  44H    basis set group =>   2
Atom  45H    basis set group =>   2
Atom  46H    basis set group =>   2
Atom  47H    basis set group =>   2
Atom  48H    basis set group =>   2
Atom  49H    basis set group =>   2
Atom  50H    basis set group =>   2
Atom  51H    basis set group =>   2


           ************************************************************
           *        Program running with 104 parallel MPI-processes   *
           *              working on a common directory               *
           ************************************************************
------------------------------------------------------------------------------
                             ORCA STARTUP CALCULATIONS
                           -- RI-GTO INTEGRALS CHOSEN --
------------------------------------------------------------------------------
------------------------------------------------------------------------------
                   ___                                                        
                  /   \      - P O W E R E D   B Y -                         
                 /     \                                                     
                 |  |  |   _    _      __       _____    __    __             
                 |  |  |  | |  | |    /  \     |  _  \  |  |  /  |          
                  \  \/   | |  | |   /    \    | | | |  |  | /  /          
                 / \  \   | |__| |  /  /\  \   | |_| |  |  |/  /          
                |  |  |   |  __  | /  /__\  \  |    /   |      \           
                |  |  |   | |  | | |   __   |  |    \   |  |\   \          
                \     /   | |  | | |  |  |  |  | |\  \  |  | \   \       
                 \___/    |_|  |_| |__|  |__|  |_| \__\ |__|  \__/        
                                                                              
                      - O R C A' S   B I G   F R I E N D -                    
                                      &                                       
                       - I N T E G R A L  F E E D E R -                       
                                                                              
 v1 FN, 2020, v2 2021, v3 2022-2024                                           
------------------------------------------------------------------------------


----------------------
SHARK INTEGRAL PACKAGE
----------------------

Number of atoms                             ...     52
Number of basis functions                   ...   2478
Number of shells                            ...    758
Maximum angular momentum                    ...      4
Integral batch strategy                     ... SHARK/LIBINT Hybrid
RI-J (if used) integral strategy            ... SPLIT-RIJ (Revised 2003 algorithm where possible)
Printlevel                                  ...      1
Contraction scheme used                     ... SEGMENTED contraction
Prescreening option                         ... SCHWARTZ
   Thresh                                   ... 1.000e-10
   Tcut                                     ... 1.000e-11
   Tpresel                                  ... 1.000e-11 
Coulomb Range Separation                    ... NOT USED
Exchange Range Separation                   ... NOT USED
Multipole approximations                    ... NOT USED
Finite Nucleus Model                        ... NOT USED
CABS basis                                  ... NOT available
Auxiliary Coulomb fitting basis             ... NOT available
Auxiliary J/K fitting basis                 ... AVAILABLE
   # of basis functions in Aux-JK           ...   5802
   # of shells in Aux-JK                    ...   1410
   Maximum angular momentum in Aux-JK       ...      5
Auxiliary Correlation fitting basis         ... AVAILABLE
   # of basis functions in Aux-C            ...   5802
   # of shells in Aux-C                     ...   1410
   Maximum angular momentum in Aux-C        ...      5
Auxiliary 'external' fitting basis          ... NOT available

Checking pre-screening integrals            ... done (  0.0 sec) Dimension = 758
Check shell pair data                       ... done (  0.0 sec)
Shell pair information
Shell pair cut-off parameter TPreSel        ...   1.0e-11
Total number of shell pairs                 ...    287661
Shell pairs after pre-screening             ...    150974
Total number of primitive shell pairs       ...    746244
Primitive shell pairs kept                  ...    262139
          la=0 lb=0:  22785 shell pairs
          la=1 lb=0:  34584 shell pairs
          la=1 lb=1:  12271 shell pairs
          la=2 lb=0:  20317 shell pairs
          la=2 lb=1:  15632 shell pairs
          la=2 lb=2:   4798 shell pairs
          la=3 lb=0:  12023 shell pairs
          la=3 lb=1:   9262 shell pairs
          la=3 lb=2:   5432 shell pairs
          la=3 lb=3:   1593 shell pairs
          la=4 lb=0:   4792 shell pairs
          la=4 lb=1:   3752 shell pairs
          la=4 lb=2:   2185 shell pairs
          la=4 lb=3:   1270 shell pairs
          la=4 lb=4:    278 shell pairs

Calculating one electron integrals          ... done (  1.3 sec)
Calculating RI/JK V-Matrix + Cholesky decomp... done (  1.8 sec)
Calculating RI/C V-Matrix + Cholesky decomp.... done (  1.6 sec)
Calculating Nuclear repulsion               ... done (  0.0 sec) ENN=   3143.325743794634 Eh

Diagonalization of the overlap matrix:
Smallest eigenvalue                        ... 3.460e-07
Time for diagonalization                   ...    0.946 sec
Threshold for overlap eigenvalues          ... 1.000e-07
Number of eigenvalues below threshold      ... 0

IMPORTANT:
Smallest eigenvalue of S below the DiffSThresh (1.000e-06) while
Thresh>1e-12 and/or TCut>1e-13! In order to avoid SCF convergence issues,
Thresh will be set to at least 1e-12 and TCut to at least 1e-13.
This can be turned off by adding %SCF DiffSThresh -1 END to the input.

Time for construction of square roots      ...    0.756 sec
Total time needed                          ...    1.771 sec

-------------------
DFT GRID GENERATION
-------------------

General Integration Accuracy     IntAcc      ... 4.959
Radial Grid Type                 RadialGrid  ... OptM3 with GC (2021)
Angular Grid (max. ang.)         AngularGrid ... 6 (Lebedev-590)
Angular grid pruning method      GridPruning ... 4 (adaptive)
Weight generation scheme         WeightScheme... mBecke (2022)
Basis function cutoff            BFCut       ... 1.0000e-10
Integration weight cutoff        WCut        ... 1.0000e-14
Partially contracted basis set               ... off
Rotationally invariant grid construction     ... off
Angular grids for H and He will be reduced by one unit
Diffuse basis detected: some atoms will have their outermost
                        angular grid increased by 1.

Total number of grid points                  ...   643829
Total number of batches                      ...    10085
Average number of points per batch           ...       63
Average number of grid points per atom       ...    12381
Initializing property integral containers    ... done (  0.1 sec)

SHARK setup successfully completed in  16.2 seconds

Maximum memory used throughout the entire STARTUP-calculation: 300.5 MB


           ************************************************************
           *        Program running with 104 parallel MPI-processes   *
           *              working on a common directory               *
           ************************************************************
-------------------------------------------------------------------------------
                                 ORCA GUESS
                   Start orbitals & Density for SCF / CASSCF
-------------------------------------------------------------------------------

------------
SCF SETTINGS
------------
Hamiltonian:
 Density Functional     Method          .... DFT(GTOs)
 Exchange Functional    Exchange        .... PBE
   PBE kappa parameter   XKappa         ....  0.804000
   PBE mue parameter    XMuePBE         ....  0.219520
 Correlation Functional Correlation     .... P86
 LDA part of GGA corr.  LDAOpt          .... VWN-5
 Gradients option       PostSCFGGA      .... off
 Hybrid DFT is turned on
   Fraction HF Exchange ScalHFX         ....  0.690000
   Scaling of DF-GGA-X  ScalDFX         ....  0.310000
   Scaling of DF-GGA-C  ScalDFC         ....  0.403800
   Scaling of DF-LDA-C  ScalLDAC        ....  0.403800
   Perturbative correction              ....  1.000000
 RI-approximation to the Coulomb term is turned on
   Number of AuxJK basis functions      .... 5802
   RI-JK (J+K treated both via RI)      .... on


General Settings:
 Integral files         IntName         .... compas3D_hc_c34h18_0pent_1_qz_riri
 Hartree-Fock type      HFTyp           .... RHF
 Total Charge           Charge          ....    0
 Multiplicity           Mult            ....    1
 Number of Electrons    NEL             ....  222
 Basis Dimension        Dim             .... 2478
 Nuclear Repulsion      ENuc            ....   3143.3257437946 Eh

Convergence Acceleration:
 AO-DIIS                CNVDIIS         .... on
   Start iteration      DIISMaxIt       ....    12
   Startup error        DIISStart       ....  0.200000
   # of expansion vecs  DIISMaxEq       ....     5
   Bias factor          DIISBfac        ....   1.050
   Max. coefficient     DIISMaxC        ....  10.000
 MO-DIIS                CNVKDIIS        .... off
 Trust-Rad. Augm. Hess. CNVTRAH         .... auto
   Auto Start mean grad. ratio tolernc. ....  1.125000
   Auto Start start iteration           ....    50
   Auto Start num. interpolation iter.  ....    10
   Max. Number of Micro iterations      ....    24
   Max. Number of Macro iterations      .... Maxiter - #DIIS iter
   Number of Davidson start vectors     ....     2
   Converg. threshold    (grad. norm)   ....   5.000e-05
   Grad. Scal. Fac. for Micro threshold ....   0.100
   Minimum threshold for Micro iter.    ....   1.000e-02
   NR start threshold (gradient norm)   ....   1.000e-04
   Initial trust radius                 ....   0.400
   Minimum AH scaling param. (alpha)    ....   1.000
   Maximum AH scaling param. (alpha)    .... 1000.000
   Quad. conv. algorithm                .... NR
   White noise on init. David. guess    .... on
   Maximum white noise                  ....   0.010
   Pseudo random numbers                .... off
   Inactive MOs                         .... canonical
   Orbital update algorithm             .... Taylor
   Preconditioner                       .... Diag
   Full preconditioner red. dimension   ....   250
 SOSCF                  CNVSOSCF        .... on
   Start iteration      SOSCFMaxIt      ....   150
   Startup grad/error   SOSCFStart      ....  0.003300
   Hessian update       SOSCFHessUp     .... L-BFGS
 Level Shifting         CNVShift        .... on
   Level shift para.    LevelShift      ....    0.2500
   Turn off err/grad.   ShiftErr        ....    0.0010
 Zerner damping         CNVZerner       .... off
 Static damping         CNVDamp         .... on
   Fraction old density DampFac         ....    0.7000
   Max. Damping (<1)    DampMax         ....    0.9800
   Min. Damping (>=0)   DampMin         ....    0.0000
   Turn off err/grad.   DampErr         ....    0.1000

SCF Procedure:
 Maximum # iterations   MaxIter         ....   125
 SCF integral mode      SCFMode         .... Direct
   Integral package                     .... SHARK and LIBINT hybrid scheme
 Reset frequency        DirectResetFreq ....    20
 Integral Threshold     Thresh          ....  1.000e-12 Eh
 Primitive CutOff       TCut            ....  1.000e-13 Eh

Convergence Tolerance:
 Convergence Check Mode ConvCheckMode   .... Total+1el-Energy
 Convergence forced     ConvForced      .... 0
 Energy Change          TolE            ....  1.000e-06 Eh
 1-El. energy change                    ....  1.000e-03 Eh
 Orbital Gradient       TolG            ....  5.000e-05
 Orbital Rotation angle TolX            ....  5.000e-05
 DIIS Error             TolErr          ....  1.000e-06

------------------------------
INITIAL GUESS: MODEL POTENTIAL
------------------------------
Loading Hartree-Fock densities                     ... done
Calculating cut-offs                               ... done
Initializing the effective Hamiltonian             ... done
Setting up the integral package (SHARK)            ... done
Starting the Coulomb interaction                   ... done (   0.6 sec)
Making the grid                                    ... done (   0.5 sec)
Mapping shells                                     ... done
Starting the XC term evaluation                    ... done (   0.2 sec)
  promolecular density results
     # of electrons  =    222.000563276
     EX              =   -179.347947385
     EC              =      0.278096130
     EX+EC           =   -179.069851255
Transforming the Hamiltonian                       ... done (   0.5 sec)
Diagonalizing the Hamiltonian                      ... done (   0.6 sec)
Back transforming the eigenvectors                 ... done (   0.3 sec)
Now organizing SCF variables                       ... done
                      ------------------
                      INITIAL GUESS DONE (   3.6 sec)
                      ------------------
             **** ENERGY FILE WAS UPDATED (compas3D_hc_c34h18_0pent_1_qz_riri.en.tmp) ****
Finished Guess after  21.7 sec
Maximum memory used throughout the entire GUESS-calculation: 345.0 MB


           ************************************************************
           *        Program running with 104 parallel MPI-processes   *
           *              working on a common directory               *
           ************************************************************

-------------------------------------------------------------------------------------------
                                      ORCA LEAN-SCF
                              memory conserving SCF solver
-------------------------------------------------------------------------------------------


Warning (ORCA_SCF): Not enough memory available!
                    Memory available for SCF calculation:       1024.0 MB
                    Memory needed (estimated)           :       1082.8 MB


----------------------------------------D-I-I-S--------------------------------------------
Iteration    Energy (Eh)           Delta-E    RMSDP     MaxDP     DIISErr   Damp  Time(sec)
-------------------------------------------------------------------------------------------
    1    -1300.9365939594013071     0.00e+00  2.96e-04  3.27e-02  1.50e-01  0.700  36.2
    2    -1300.7090718334070516     2.28e-01  3.05e-04  3.76e-02  1.34e-01  0.700  38.0
                               ***Turning on AO-DIIS***
    3    -1300.8531183312875328    -1.44e-01  2.50e-04  4.92e-02  7.90e-02  0.700  37.0
    4    -1301.1356792516594396    -2.83e-01  7.58e-04  2.01e-01  4.09e-02  0.000  37.2
    5    -1301.5915515841002161    -4.56e-01  1.47e-04  2.58e-02  3.62e-02  0.000  38.1
    6    -1301.6110823978401640    -1.95e-02  6.71e-05  8.11e-03  1.62e-02  0.000  38.1
    7    -1301.6159491249932216    -4.87e-03  4.14e-05  9.51e-03  5.35e-03  0.000  36.6
                              *** Initializing SOSCF ***
---------------------------------------S-O-S-C-F--------------------------------------
Iteration    Energy (Eh)           Delta-E    RMSDP     MaxDP     MaxGrad    Time(sec)
--------------------------------------------------------------------------------------
    8    -1301.6165664750928954    -6.17e-04  3.10e-05  6.16e-03  1.38e-03    38.8
    9    -1301.6166202241288374    -5.37e-05  1.99e-05  3.81e-03  1.84e-04    35.9
   10    -1301.6166277706647634    -7.55e-06  1.66e-05  3.21e-03  1.12e-04    35.8
   11    -1301.6166290846008451    -1.31e-06  6.04e-06  1.20e-03  5.26e-05    36.2
   12    -1301.6166296365222479    -5.52e-07  2.63e-06  5.82e-04  1.82e-05    35.8
                 **** Energy Check signals convergence ****

               *****************************************************
               *                     SUCCESS                       *
               *           SCF CONVERGED AFTER  12 CYCLES          *
               *****************************************************

             **** ENERGY FILE WAS UPDATED (compas3D_hc_c34h18_0pent_1_qz_riri.en.tmp) ****

----------------
TOTAL SCF ENERGY
----------------

Total Energy       :      -1301.61662963652225 Eh          -35418.78915 eV

Components:
Nuclear Repulsion  :       3143.32574379463358 Eh           85534.24197 eV
Electronic Energy  :      -4444.94237343115492 Eh         -120953.03111 eV
One Electron Energy:      -8014.72214360855924 Eh         -218091.67709 eV
Two Electron Energy:       3569.77977017740386 Eh           97138.64598 eV

Virial components:
Potential Energy   :      -2599.38253614796486 Eh          -70732.79479 eV
Kinetic Energy     :       1297.76590651144238 Eh           35314.00565 eV
Virial Ratio       :          2.00296719393364

DFT components:
N(Alpha)           :      110.999994013104 electrons
N(Beta)            :      110.999994013104 electrons
N(Total)           :      221.999988026209 electrons
E(X)               :      -56.498320591906 Eh       
E(C)               :       -3.316453994007 Eh       
E(XC)              :      -59.814774585913 Eh       

---------------
SCF CONVERGENCE
---------------

  Last Energy change         ...    5.5192e-07  Tolerance :   1.0000e-06
  Last MAX-Density change    ...    5.8245e-04  Tolerance :   1.0000e-05
  Last RMS-Density change    ...    2.6267e-06  Tolerance :   1.0000e-06
  Last DIIS Error            ...    1.3752e-03  Tolerance :   1.0000e-06
  Last Orbital Gradient      ...    1.8200e-05  Tolerance :   5.0000e-05
  Last Orbital Rotation      ...    6.6783e-05  Tolerance :   5.0000e-05


----------------
ORBITAL ENERGIES
----------------

  NO   OCC          E(Eh)            E(eV) 
   0   2.0000     -10.844735      -295.1003 
   1   2.0000     -10.843775      -295.0741 
   2   2.0000     -10.840410      -294.9826 
   3   2.0000     -10.839490      -294.9575 
   4   2.0000     -10.839105      -294.9470 
   5   2.0000     -10.838132      -294.9206 
   6   2.0000     -10.838044      -294.9182 
   7   2.0000     -10.837688      -294.9085 
   8   2.0000     -10.836889      -294.8867 
   9   2.0000     -10.835786      -294.8567 
  10   2.0000     -10.835737      -294.8554 
  11   2.0000     -10.835075      -294.8374 
  12   2.0000     -10.834625      -294.8251 
  13   2.0000     -10.834304      -294.8164 
  14   2.0000     -10.834295      -294.8162 
  15   2.0000     -10.833604      -294.7974 
  16   2.0000     -10.827034      -294.6186 
  17   2.0000     -10.826933      -294.6158 
  18   2.0000     -10.826694      -294.6093 
  19   2.0000     -10.826613      -294.6071 
  20   2.0000     -10.826225      -294.5966 
  21   2.0000     -10.826192      -294.5957 
  22   2.0000     -10.825545      -294.5780 
  23   2.0000     -10.825528      -294.5776 
  24   2.0000     -10.825480      -294.5763 
  25   2.0000     -10.825015      -294.5636 
  26   2.0000     -10.824971      -294.5624 
  27   2.0000     -10.824877      -294.5599 
  28   2.0000     -10.824698      -294.5550 
  29   2.0000     -10.824495      -294.5495 
  30   2.0000     -10.824466      -294.5487 
  31   2.0000     -10.823057      -294.5104 
  32   2.0000     -10.822998      -294.5088 
  33   2.0000     -10.821162      -294.4588 
  34   2.0000      -1.098667       -29.8962 
  35   2.0000      -1.083913       -29.4948 
  36   2.0000      -1.060302       -28.8523 
  37   2.0000      -1.041986       -28.3539 
  38   2.0000      -1.031831       -28.0775 
  39   2.0000      -1.008502       -27.4427 
  40   2.0000      -0.990862       -26.9627 
  41   2.0000      -0.985039       -26.8043 
  42   2.0000      -0.963490       -26.2179 
  43   2.0000      -0.948697       -25.8154 
  44   2.0000      -0.920251       -25.0413 
  45   2.0000      -0.919089       -25.0097 
  46   2.0000      -0.914955       -24.8972 
  47   2.0000      -0.908300       -24.7161 
  48   2.0000      -0.894878       -24.3509 
  49   2.0000      -0.876916       -23.8621 
  50   2.0000      -0.855505       -23.2795 
  51   2.0000      -0.804194       -21.8832 
  52   2.0000      -0.783936       -21.3320 
  53   2.0000      -0.776087       -21.1184 
  54   2.0000      -0.772575       -21.0228 
  55   2.0000      -0.771059       -20.9816 
  56   2.0000      -0.761753       -20.7284 
  57   2.0000      -0.748494       -20.3676 
  58   2.0000      -0.727786       -19.8041 
  59   2.0000      -0.703745       -19.1499 
  60   2.0000      -0.680706       -18.5230 
  61   2.0000      -0.668740       -18.1973 
  62   2.0000      -0.659908       -17.9570 
  63   2.0000      -0.645459       -17.5638 
  64   2.0000      -0.640282       -17.4230 
  65   2.0000      -0.625291       -17.0150 
  66   2.0000      -0.618521       -16.8308 
  67   2.0000      -0.611387       -16.6367 
  68   2.0000      -0.603509       -16.4223 
  69   2.0000      -0.591278       -16.0895 
  70   2.0000      -0.580052       -15.7840 
  71   2.0000      -0.574126       -15.6227 
  72   2.0000      -0.563269       -15.3273 
  73   2.0000      -0.560299       -15.2465 
  74   2.0000      -0.544984       -14.8298 
  75   2.0000      -0.543138       -14.7795 
  76   2.0000      -0.537397       -14.6233 
  77   2.0000      -0.527028       -14.3412 
  78   2.0000      -0.525639       -14.3034 
  79   2.0000      -0.525215       -14.2918 
  80   2.0000      -0.521412       -14.1883 
  81   2.0000      -0.517140       -14.0721 
  82   2.0000      -0.510795       -13.8994 
  83   2.0000      -0.507554       -13.8112 
  84   2.0000      -0.500811       -13.6278 
  85   2.0000      -0.492100       -13.3907 
  86   2.0000      -0.481535       -13.1032 
  87   2.0000      -0.476909       -12.9773 
  88   2.0000      -0.473184       -12.8760 
  89   2.0000      -0.469312       -12.7706 
  90   2.0000      -0.461248       -12.5512 
  91   2.0000      -0.460023       -12.5179 
  92   2.0000      -0.454569       -12.3695 
  93   2.0000      -0.451081       -12.2745 
  94   2.0000      -0.435315       -11.8455 
  95   2.0000      -0.429178       -11.6785 
  96   2.0000      -0.425105       -11.5677 
  97   2.0000      -0.417115       -11.3503 
  98   2.0000      -0.408247       -11.1090 
  99   2.0000      -0.406401       -11.0587 
 100   2.0000      -0.389879       -10.6092 
 101   2.0000      -0.380101       -10.3431 
 102   2.0000      -0.356764        -9.7080 
 103   2.0000      -0.344644        -9.3782 
 104   2.0000      -0.311832        -8.4854 
 105   2.0000      -0.305712        -8.3188 
 106   2.0000      -0.300215        -8.1693 
 107   2.0000      -0.299595        -8.1524 
 108   2.0000      -0.276959        -7.5364 
 109   2.0000      -0.248371        -6.7585 
 110   2.0000      -0.220081        -5.9887 
 111   0.0000      -0.024590        -0.6691 
 112   0.0000       0.008803         0.2395 
 113   0.0000       0.031426         0.8551 
 114   0.0000       0.042964         1.1691 
 115   0.0000       0.053157         1.4465 
 116   0.0000       0.056551         1.5388 
 117   0.0000       0.061920         1.6849 
 118   0.0000       0.071883         1.9560 
 119   0.0000       0.076201         2.0735 
 120   0.0000       0.077699         2.1143 
 121   0.0000       0.086286         2.3480 
*Only the first 10 virtual orbitals were printed.
-------
TIMINGS
-------

Total SCF time: 0 days 0 hours 7 min 43 sec 

Total time                  ....     463.922 sec
Sum of individual times     ....     463.787 sec  (100.0%)

SCF preparation             ....      17.189 sec  (  3.7%)
Fock matrix formation       ....     401.105 sec  ( 86.5%)
  Startup                   ....       3.372 sec  (  0.8% of F)
  RI-JK                     ....     368.692 sec  ( 91.9% of F)
  XC integration            ....      19.765 sec  (  4.9% of F)
    XC Preparation          ....       0.000 sec  (  0.0% of XC)
    Basis function eval.    ....       1.471 sec  (  7.4% of XC)
    Density eval.           ....       4.557 sec  ( 23.1% of XC)
    XC-Functional eval.     ....       0.039 sec  (  0.2% of XC)
    XC-Potential eval.      ....       6.085 sec  ( 30.8% of XC)
Diagonalization             ....       0.000 sec  (  0.0%)
Density matrix formation    ....       6.046 sec  (  1.3%)
Total Energy calculation    ....       3.010 sec  (  0.6%)
Population analysis         ....       0.000 sec  (  0.0%)
Orbital Transformation      ....       4.103 sec  (  0.9%)
Orbital Orthonormalization  ....       0.000 sec  (  0.0%)
DIIS solution               ....      24.480 sec  (  5.3%)
SOSCF solution              ....       7.569 sec  (  1.6%)
Finished LeanSCF after 464.8 sec

Maximum memory used throughout the entire LEANSCF-calculation: 1127.8 MB


           ************************************************************
           *        Program running with 104 parallel MPI-processes   *
           *              working on a common directory               *
           ************************************************************

------------------------------------------------------------------------------
                                ORCA  MP2 
------------------------------------------------------------------------------


-------------
RI-MP2 ENERGY
-------------
Dimension of the orbital basis            ... 2478
Dimension of the AuxC basis               ... 5802
Memory devoted to MP2                     ... 4096 MB   
Data format for matrix containers         ... DOUBLE
Compression type for matrix containers    ... UNCOMPRESSED
Scaling for aa/bb pairs                   ...   5.710e-02
Scaling for ab pairs                      ...   5.979e-01
Overall scaling of the MP2 energy         ...   1.000e+00

-----------------------
SHARK RI TRANSFORMATION
-----------------------

Number of basis functions                ...   2478
Number of aux functions                  ...   5802
Number of operators                      ...      1
Generation of IJK                        ... NO
Generation of IAK                        ... YES
Generation of ABK                        ... NO
Orbital Range Operator  0:    0- 110 to  111-2477

Aux basis identifier                     ...   AUXC
Contraction scheme used                  ... SEGMENTED
Do orthogonalization                     ... YES
All operator combinations                ... NO
Transpose (ia|K)                         ... NO
Integral generator used                  ... LIBINT
Starting integral generation + trafo... 
Half trafo (segmented) done. Total time = 13.1 sec. integrals=  3.0 sec trafo=  9.4 sec
Integral generation and half transformation done ( 13.1 sec)

Reading or making V^(-1/2)          ... done (  0.6 sec)
Sorting IAK integrals               ... done ( 15.1 sec)

SHARK RI integral transformation done. Total time = 29.0 sec.

Opening buffers                              ... done

Starting loop over batches of integrals:

Operator 0  - window                       ... (  0-110)x(111-2477)
Operator 0  - Memory available             ...  4096 MB
Operator 0  - Memory needed per MO         ... 104.8 MB
Operator 0  - Number of orbitals per batch ... 2
Operator 0  - Number of batches            ... 1

OPERATOR  0   PASS   0:  MOs     0 ...    1 +    2 ...    3 +    4 ...    5 +    6 ...    7
                            +    8 ...    9 +   10 ...   11 +   12 ...   13 +   14 ...   15
                            +   16 ...   17 +   18 ...   19 +   20 ...   21 +   22 ...   23
                            +   24 ...   25 +   26 ...   27 +   28 ...   29 +   30 ...   31
                            +   32 ...   33 +   34 ...   35 +   36 ...   37 +   38 ...   39
                            +   40 ...   41 +   42 ...   43 +   44 ...   45 +   46 ...   47
                            +   48 ...   49 +   50 ...   51 +   52 ...   53 +   54 ...   55
                            +   56 ...   57 +   58 ...   59 +   60 ...   61 +   62 ...   63
                            +   64 ...   65 +   66 ...   67 +   68 ...   69 +   70 ...   71
                            +   72 ...   73 +   74 ...   75 +   76 ...   77 +   78 ...   79
                            +   80 ...   81 +   82 ...   83 +   84 ...   85 +   86 ...   87
                            +   88 ...   89 +   90 ...   91 +   92 ...   93 +   94 ...   95
                            +   96 ...   97 +   98 ...   99 +  100 ...  101 +  102 ...  103
                            +  104 ...  105 +  106 ...  107 +  108 ...  109 +  110 ...  110
  Reading integrals       ... ok
Time spent in pair loops =   269.471 sec

-----------------------------------------------
 RI-MP2 CORRELATION ENERGY:     -3.348323396 Eh
-----------------------------------------------


-------
TIMINGS
-------

Total time                :  303.954 sec
Integral trafo            :   29.360 sec (  9.7%)
I/O of integrals          :    0.248 sec (  0.1%)
K(i,j) operators          :    3.574 sec (  1.2%)
T(i,j) pair energies      :    0.399 sec (  0.1%)
V**(-1/2)                 :    5.121 sec (  1.7%)


---------------------------------------
MP2 TOTAL ENERGY:    -1304.964953032 Eh
---------------------------------------

Maximum memory used throughout the entire MP2-calculation: 840.4 MB


-------------------------------------------------------------------------------
                          DFT DISPERSION CORRECTION                            
                                                                               
                                DFTD4 V3.4.0                                   
-------------------------------------------------------------------------------
The REV-DSD-PBEP86-2021 functional is recognized
A user input s6-coefficient scaling factor has been recognized
A user input a1-coefficient scaling factor has been recognized
A user input s8-coefficient scaling factor has been recognized
A user input a2-coefficient scaling factor has been recognized
A user input s9-coefficient scaling factor has been recognized
Active option DFTDOPT                   ...         5   

-------------------------   ----------------
Dispersion correction           -0.056871234
-------------------------   ----------------


-------------------------   --------------------
FINAL SINGLE POINT ENERGY     -1305.021824266779
-------------------------   --------------------



           ************************************************************
           *        Program running with 104 parallel MPI-processes   *
           *              working on a common directory               *
           ************************************************************

------------------------------------------------------------------------------
                              ORCA PROPERTY CALCULATIONS
------------------------------------------------------------------------------

GBWName                                 ... compas3D_hc_c34h18_0pent_1_qz_riri.gbw
Number of atoms                         ...     52
Number of basis functions               ...   2478
Max core memory                         ...   1024 MB

Electric properties:
Dipole moment                           ... YES
Quadrupole moment                       ...  NO
Static polarizability (Dipole/Dipole)   ...  NO
Static polarizability (Dipole/Quad.)    ...  NO
Static polarizability (Quad./Quad.)     ...  NO
Static polarizability (Velocity)        ...  NO

Atomic electric properties:
Dipole moment                           ...  NO
Quadrupole moment                       ...  NO
Static polarizability                   ...  NO

Choice of electric origin               ... Center of mass
Position of electric origin             ...     0.077326     0.004512    -0.019120

General magnetic properties:
Magnetizability                         ...  NO

EPR properties:
g-Tensor (aka g-matrix)                 ...  NO
Zero-Field splitting spin-orbit         ...  NO
Zero-field splitting spin-spin          ...  NO
Hyperfine couplings                     ...  NO (   0 nuclei)
Quadrupole couplings                    ...  NO (   0 nuclei)
Contact density                         ...  NO (   0 nuclei)

NMR properties:
Chemical shifts                         ...  NO (   0 nuclei)
Spin-rotation constants                 ...  NO (   0 nuclei)
Spin-spin couplings                     ...  NO (   0 nuclei,    0 pairs)

Choice of magnetic origin               ... GIAO
Position of magnetic origin             ...     0.000000     0.000000     0.000000

Properties with geometric perturbations:
SCF Hessian                             ...  NO
IR spectrum                             ...  NO
VCD spectrum                            ...  NO
X-ray spectroscopy properties:
SCF XES/XAS/RIXS spectra                ...  NO


-------------
DIPOLE MOMENT
-------------

Method             : SCF
Type of density    : Electron Density
Multiplicity       :   1
Irrep              :   0
Energy             : -1301.6166296365222479 Eh
Relativity type    : 
Basis              : AO
                                X                 Y                 Z
Electronic contribution:      2.081734111       0.135055731      -0.505456932
Nuclear contribution   :     -2.179122341      -0.130238711       0.536761159
                        -----------------------------------------
Total Dipole Moment    :     -0.097388230       0.004817020       0.031304227
                        -----------------------------------------
Magnitude (a.u.)       :      0.102409109
Magnitude (Debye)      :      0.260303270



--------------------
Rotational spectrum 
--------------------
 
Rotational constants in cm-1:             0.007744             0.003362             0.002481 
Rotational constants in MHz :           232.157362           100.775619            74.369855 

Dipole components along the rotational axes: 
x,y,z [a.u.] :     0.059381    -0.083037     0.008150 
x,y,z [Debye]:     0.150934    -0.211063     0.020715 

 

Dipole moment calculation done in   0.5 sec 

Maximum memory used throughout the entire PROP-calculation: 385.4 MB

--------------------------------
SUGGESTED CITATIONS FOR THIS RUN
--------------------------------

Below you find a list of papers that are relevant to this ORCA run
We neither can nor want to force you to cite these papers, but we appreciate if you do
You receive ORCA, which is the product of decades of hard work by many enthusiastic individuals, for free
The only thing we kindly ask in return is that you cite our papers,
We deeply appreciate it, if you show your appreciation for ORCA by not just citing the generic ORCA reference.

Please note that relegating all ORCA citations to the supporting information does *not* help us.
SI sections are not indexed - citations you put there will not count into any citation statistics
But we need these citations in order to attract the funding resources that allow us to do what we are doing

Therefore, if you are a happy ORCA user, please consider citing a few of the papers listed below in the main body of your paper

In addition to the list printed below, the program has created the file compas3D_hc_c34h18_0pent_1_qz_riri.bibtex that contains the list in bibtex format
You can import this file easily into all common literature databanks and citation aid programs


List of essential papers. We consider these as the minimum necessary citations

  1. Neese,F.
     Software update: the ORCA program system, version 5.0
     WIRES Comput. Molec. Sci., 2022 12(1)e1606
     doi.org/10.1002/wcms.1606

List of papers to cite with high priority. The work reported in these papers was absolutely
necessary for this run to complete.
Our perspective: the developers of density functionals and basis sets usually get cited in chemistry papers
Good! But without the algorithms to do something with them, the functionals or basis sets would not do anything.
Hence, in our opinion, the algorithm design and method developments papers are equally worthy of getting cited

  1. Neese,F.
     An improvement of the resolution of the identity approximation for the formation of the Coulomb matrix
     J. Comp. Chem., 2003 24(14)1740-1747
     doi.org/10.1002/jcc.10318
  2. Kossmann,S.; Neese,F.
     Comparison of two efficient approximate Hartee-Fock approaches
     Chem. Phys. Lett., 2009 481 240-243
     doi.org/10.1016/j.cplett.2009.09.073
  3. Neese,F.
     The SHARK Integral Generation and Digestion System
     J. Comp. Chem., 2022  1-16
     doi.org/10.1002/jcc.26942
  4. Caldeweyher,E.; Bannwarth,C.; Grimme,S.
     Extension of the D3 dispersion coefficient model
     J. Chem. Phys., 2017 147 034112
     doi.org/10.1063/1.4993215
  5. Caldeweyher,E.; Ehlert,S.; Hansen,A.; Neugebauer,H.; Spicher,S.; Bannwarth,C.; Grimme,S.
     A generally applicable atomic-charge dependent London dispersion correction
     J. Chem. Phys., 2019 150 154122
     doi.org/10.1063/1.5090222
  6. Caldeweyher,E.; Mewes,J.; Ehlert,S.; Grimme,S.
     Extension and evaluation of the D4 London-dispersion model for periodic systems
     Phys. Chem. Chem. Phys., 2020 22(16)8499-8512
     doi.org/10.1039/D0CP00502A
  7. Wittmann,L.; Gordiy,I.; Friede,M.; Helmich-Paris,B.; Grimme,S.; Hansen,A.; Bursch,M.
     Extension of the D3 and D4 London Dispersion Corrections to the full Actinides Series
     Phys. Chem. Chem. Phys., 2024 26(32)21379-21394
     doi.org/https://doi.org/10.1039/D4CP01514B 

List of suggested additional citations. These are papers that are important in the 'surrounding' of 
of this run, or papers that preceded the highly important papers. If you like your results we are grateful for a citation.

  1. Neese,F.
     The ORCA program system
     WIRES Comput. Molec. Sci., 2012 2(1)73-78
     doi.org/10.1002/wcms.81
  2. Neese,F.
     Software update: the ORCA program system, version 4.0
     WIRES Comput. Molec. Sci., 2018 8(1)1-6
     doi.org/10.1002/wcms.1327
  3. Neese,F.; Wennmohs,F.; Becker,U.; Riplinger,C.
     The ORCA quantum chemistry program package
     J. Chem. Phys., 2020 152 Art. No. L224108
     doi.org/10.1063/5.0004608

List of optional additional citations

  1. Neese,F.
     Approximate second-order SCF convergence for spin unrestricted wavefunctions
     Chem. Phys. Lett., 2000 325(1-3)93-98
     doi.org/10.1016/s0009-2614(00)00662-x

Timings for individual modules:

Sum of individual times          ...      865.948 sec (=  14.432 min)
Startup calculation              ...       33.261 sec (=   0.554 min)   3.8 %
SCF iterations                   ...      489.761 sec (=   8.163 min)  56.6 %
Property calculations            ...       18.392 sec (=   0.307 min)   2.1 %
MP2 module                       ...      324.534 sec (=   5.409 min)  37.5 %
                             ****ORCA TERMINATED NORMALLY****
TOTAL RUN TIME: 0 days 0 hours 14 minutes 54 seconds 656 msec
