
                                 *****************
                                 * O   R   C   A *
                                 *****************

                                            #,                                       
                                            ###                                      
                                            ####                                     
                                            #####                                    
                                            ######                                   
                                           ########,                                 
                                     ,,################,,,,,                         
                               ,,#################################,,                 
                          ,,##########################################,,             
                       ,#########################################, ''#####,          
                    ,#############################################,,   '####,        
                  ,##################################################,,,,####,       
                ,###########''''           ''''###############################       
              ,#####''   ,,,,##########,,,,          '''####'''          '####       
            ,##' ,,,,###########################,,,                        '##       
           ' ,,###''''                  '''############,,,                           
         ,,##''                                '''############,,,,        ,,,,,,###''
      ,#''                                            '''#######################'''  
     '                                                          ''''####''''         
             ,#######,   #######,   ,#######,      ##                                
            ,#'     '#,  ##    ##  ,#'     '#,    #''#        ,####,   ,####,        
            ##       ##  ##   ,#'  ##            #'  '#       #'       #'  '#        
            ##       ##  #######   ##           ,######,      #####,   #    #        
            '#,     ,#'  ##    ##  '#,     ,#' ,#      #,     #,   #   #,  ,#        
             '#######'   ##     ##  '#######'  #'      '#     '####' # '####'        



                #########################################################
                #                        -***-                          #
                #          Department of theory and spectroscopy        #
                #                                                       #
                #                      Frank Neese                      #
                #                                                       #
                #     Directorship, Architecture, Infrastructure        #
                #                    SHARK, DRIVERS                     #
                #        Core code/Algorithms in most modules           #
                #                                                       #
                #        Max Planck Institute fuer Kohlenforschung      #
                #                Kaiser Wilhelm Platz 1                 #
                #                 D-45470 Muelheim/Ruhr                 #
                #                      Germany                          #
                #                                                       #
                #                  All rights reserved                  #
                #                        -***-                          #
                #########################################################


                         Program Version 6.0.1  -  RELEASE   -


 With contributions from (in alphabetic order):
[Max-Planck-Institut fuer Kohlenforschung]                               
  Daniel Aravena         : Magnetic Suceptibility                        
  Michael Atanasov       : Ab Initio Ligand Field Theory (pilot matlab implementation)
  Alexander A. Auer      : GIAO ZORA, VPT2 properties, NMR spectrum      
  Ute Becker             : All parallelization in ORCA, NUMFREQ, NUMCALC 
  Giovanni Bistoni       : ED, misc. LED, open-shell LED, HFLD           
  Martin Brehm           : Molecular dynamics                            
  Dmytro Bykov           : pre 5.0 version of the SCF Hessian            
  Marcos Casanova-Páez   : Triplet and SCS-CIS(D). UHF-(DLPNO)-IP/EA/STEOM-CCSD. UHF-CVS-IP/STEOM-CCSD   
  Vijay G. Chilkuri      : MRCI spin determinant printing, contributions to CSF-ICE 
  Pauline Colinet        : FMM embedding                                 
  Dipayan Datta          : RHF DLPNO-CCSD density                        
  Achintya Kumar Dutta   : EOM-CC, STEOM-CC                              
  Nicolas Foglia         : Exact transition moments, OPA infrastructure, MCD improvements    
  Dmitry Ganyushin       : Spin-Orbit,Spin-Spin,Magnetic field MRCI      
  Miquel Garcia-Rates    : C-PCM and meta-GGA Hessian, CCSD/C-PCM, Gaussian charge scheme 
  Tiago L. C. Gouveia    : GS-ROHF, GS-ROCIS                             
  Yang Guo               : DLPNO-NEVPT2, F12-NEVPT2, CIM, IAO-localization        
  Andreas Hansen         : Spin unrestricted coupled pair/coupled cluster methods 
  Ingolf Harden          : AUTO-CI MPn and infrastructure                
  Benjamin Helmich-Paris : MC-RPA, TRAH-(SCF,CASSCF), AVAS, COSX integrals, SCF dyn. polar. 
  Lee Huntington         : MR-EOM, pCC                                   
  Robert Izsak           : Overlap fitted RIJCOSX, COSX-SCS-MP3, EOM     
  Riya Kayal             : Wick's Theorem for AUTO-CI, AUTO-CI UHF-CCSDT 
  Emily Kempfer          : AUTO-CI, RHF CISDT and CCSDT                  
  Christian Kollmar      : KDIIS, OOCD, Brueckner-CCSD(T), CCSD density, CASPT2, CASPT2-K, improved NEVPT2 
  Axel Koslowski         : Symmetry handling                             
  Simone Kossmann        : meta-GGA functionals, TD-DFT gradient, OOMP2, (MP2 Hessian; deprecated post 5.0) 
  Lucas Lang             : DCDCAS                                        
  Marvin Lechner         : AUTO-CI (C++ implementation), FIC-MRCC        
  Spencer Leger          : CASSCF response                               
  Dagmar Lenk            : GEPOL surface, SMD, ORCA-2-JSON               
  Dimitrios Liakos       : Extrapolation schemes; Compound Job, initial MDCI parallelization 
  Dimitrios Manganas     : Further ROCIS development; embedding schemes. LFT, Crystal Embedding 
  Dimitrios Pantazis     : SARC Basis sets                               
  Anastasios Papadopoulos: AUTO-CI, single reference methods and gradients 
  Taras Petrenko         : pre 6.0 DFT Hessian and TD-DFT gradient, (ASA, deprecated), ECA, 1-Electron XAS/XES, NRVS 
  Peter Pinski           : DLPNO-MP2, DLPNO-MP2 Gradient                 
  Christoph Reimann      : Effective Core Potentials                     
  Marius Retegan         : Local ZFS, SOC                                
  Christoph Riplinger    : Optimizer, TS searches, QM/MM, DLPNO-CCSD(T), (RO)-DLPNO pert. Triples 
  Michael Roemelt        : Original ROCIS implementation                 
  Masaaki Saitow         : Open-shell DLPNO-CCSD energy and density      
  Barbara Sandhoefer     : DKH picture change effects                    
  Kantharuban Sivalingam : CASSCF convergence/infrastructure, NEVPT2 and variants, FIC-MRCI 
  Bernardo de Souza      : ESD, SOC TD-DFT                               
  Georgi L. Stoychev     : AutoAux, RI-MP2 NMR, DLPNO-MP2 response, X2C  
  Van Anh Tran           : RI-MP2 g-tensors                              
  Willem Van den Heuvel  : Paramagnetic NMR                              
  Zikuan Wang            : NOTCH, Electric field optimization            
  Frank Wennmohs         : Technical directorship and infrastructure     
  Hang Xu                : AUTO-CI-Response properties                   
                                                                         
[FACCTs GmbH]                                                            
  Markus Bursch, Miquel Garcia-Rates, Christoph Riplinger, Bernardo de Souza, Georgi L. Stoychev 
                                                                 
  APM, Basis sets (HGBS, AHGBS, def-TZVP (Ac-Lr), def2-XVPD (La-Lu)), CI-OPT, improved COSX, DLPNO-Multilevel,           
  DOCKER, DRACO, updates on ESD, GOAT, IRC, LR-CPCM, MBIS, meta-GGA TD-DFT gradient, ML-optimized integration grids, 
  MM, NACMEs, nearIR, NEB, NEB-TS, NL-DFT gradient (VV10), 2- and 3-layer-ONIOM, interface openCOSMO-RS, QMMM,   
  Crystal-QMMM, SF, symmetry and pop. for TD-DFT, r2SCAN hybrids, SOLVATOR                                   
                                                                         
[Other institutions]                                                     
  V. Asgeirsson          : NEB                                           
  Christoph Bannwarth    : sTDA-DFT, sTD-DFT, PBEh-3c, B97-3c, D3        
  Sebastian Ehlert       : rSCAN, r2SCAN, r2SCAN-3c, D4, dhf basis sets  
  Marvin Friede          : D4 for Fr, Ra, Ac-Lr                          
  Lars Goerigk           : TD-DFT with DH, B97 family of functionals     
  Stefan Grimme          : VdW corrections, initial TS optimization, DFT functionals, gCP, sTDA/sTD-DF 
  Waldemar Hujo          : DFT-NL                                        
  H. Jonsson             : NEB                                           
  Holger Kruse           : gCP                                           
  Marcel Mueller         : wB97X-3c, vDZP basis set                      
  Hagen Neugebauer       : wr2SCAN                                       
  Tobias Risthaus        : range-separated hybrid DFT                    
  Lukas Wittmann         : regularized MP2, r2SCAN double-hybrids, wr2SCAN        
                                                                         
We gratefully acknowledge several colleagues who have allowed us to      
interface, adapt or use parts of their codes:                            
  Ed Valeev, F. Pavosevic, A. Kumar             : LibInt (2-el integral package), F12 methods 
  Garnet Chan, S. Sharma, J. Yang, R. Olivares  : DMRG                   
  Ulf Ekstrom                                   : XCFun DFT Library      
  Mihaly Kallay                                 : mrcc  (arbitrary order and MRCC methods)
  Frank Weinhold                                : gennbo (NPA and NBO analysis)           
  Simon Mueller                                 : openCOSMO-RS                            
  Christopher J. Cramer and Donald G. Truhlar   : smd solvation model                     
  S Lehtola, MJT Oliveira, MAL Marques          : LibXC Library                           
  Liviu Ungur et al                             : ANISO software                          


 Your calculation uses the libint2 library for the computation of 2-el integrals
 For citations please refer to: http://libint.valeyev.net

 Your ORCA version has been built with support for libXC version: 6.2.2
 For citations please refer to: https://libxc.gitlab.io

 This ORCA versions uses:
   CBLAS   interface :  Fast vector & matrix operations
   LAPACKE interface :  Fast linear algebra routines
   SCALAPACK package :  Parallel linear algebra routines
   Shared memory     :  Shared parallel matrices
   BLAS/LAPACK       :  OpenBLAS 0.3.27  USE64BITINT DYNAMIC_ARCH NO_AFFINITY SapphireRapids SINGLE_THREADED
        Core in use  :  SapphireRapids
   Copyright (c) 2011-2014, The OpenBLAS Project




***************************************
The coordinates will be read from file: /scratch/kx58/rs2200/dhdft/inputs/compas3x-xyzs/hc_c24h14_0pent_8.xyz
***************************************


Your calculation utilizes the atom-pairwise dispersion correction
based on EEQ partial charges (D4)


================================================================================

----- Orbital basis set information -----
Your calculation utilizes the basis: def2-QZVPP
   F. Weigend and R. Ahlrichs, Phys. Chem. Chem. Phys. 7, 3297 (2005).

================================================================================
                                        WARNINGS
                       Please study these warnings very carefully!
================================================================================


WARNING: No MP2 level density has been requested!
         To calculate MP2 level properties use
         %mp2 Density relaxed end
         or
         %mp2 Density unrelaxed end
         Otherwise for double-hybrid DFT only the energy is correct!

================================================================================
                                       INPUT FILE
================================================================================
NAME = compas3x_hc_c24h14_0pent_8_qz_nori.inp
|  1> ! RKS revDSD-PBEP86-D4/2021 defgrid3  NORI NOPOP NoFrozencore NoUseSym
|  2> 
|  3> %basis
|  4> Basis "def2-QZVPP"
|  5> 
|  6> 
|  7> end
|  8> 
|  9> %method
| 10> ScalHFX 0.69
| 11> ScalDFX 0.31
| 12> ScalDFC 0.4038
| 13> ScalLDAC 0.4038
| 14> 
| 15> D4S6 0.4612
| 16> D4S8 0.0
| 17> D4A1 0.44
| 18> D4A2 3.60
| 19> end
| 20> 
| 21> %mp2
| 22> PS 0.5979
| 23> PT 0.0571
| 24> MaxCore 45000
| 25> Q1Opt 1
| 26> 
| 27> end
| 28> 
| 29> %pal
| 30> nprocs 10
| 31> end
| 32> 
| 33> *XYZFILE 0 1 /scratch/kx58/rs2200/dhdft/inputs/compas3x-xyzs/hc_c24h14_0pent_8.xyz
| 34> 
| 35>                          ****END OF INPUT****
================================================================================

                       ****************************
                       * Single Point Calculation *
                       ****************************

---------------------------------
CARTESIAN COORDINATES (ANGSTROEM)
---------------------------------
  C      1.810806    0.171809   -0.001627
  C      0.406486    0.315242    0.000884
  C     -0.177548    1.614470    0.004282
  C      0.659869    2.757807    0.006492
  C      2.064762    2.580865    0.004338
  C      2.613230    1.342011    0.000242
  C      2.403591   -1.132035   -0.004180
  C      1.547991   -2.260918    0.003884
  C      0.152762   -2.081751    0.007523
  C     -0.437570   -0.840035    0.002198
  C     -1.884196   -0.672008   -0.001325
  C     -2.449651    0.619717    0.001848
  C     -1.585621    1.789968    0.006901
  C     -2.092536    3.083799    0.012811
  C     -1.262818    4.197592    0.015149
  C      0.100237    4.041807    0.011706
  C      3.792748   -1.363730   -0.013884
  C      4.304127   -2.634503   -0.013212
  C      3.453185   -3.746005   -0.002153
  C      2.099938   -3.558920    0.006001
  C     -2.745272   -1.776593   -0.010054
  C     -4.113166   -1.632227   -0.013489
  C     -4.668943   -0.360834   -0.008682
  C     -3.844905    0.740388   -0.001653
  H      2.692594    3.460639    0.006650
  H      3.687064    1.249198   -0.000159
  H     -0.442885   -2.980713    0.014001
  H     -3.156491    3.255406    0.015863
  H     -1.700012    5.185533    0.019598
  H      0.756282    4.900222    0.013334
  H      4.482302   -0.534714   -0.023099
  H      5.374022   -2.784193   -0.021315
  H      3.871584   -4.741739   -0.000897
  H      1.427895   -4.405589    0.013407
  H     -2.343893   -2.776739   -0.015383
  H     -4.749426   -2.504960   -0.020339
  H     -5.741598   -0.234766   -0.011215
  H     -4.303945    1.715497    0.000556

----------------------------
CARTESIAN COORDINATES (A.U.)
----------------------------
  NO LB      ZA    FRAG     MASS         X           Y           Z
   0 C     6.0000    0    12.011    3.421928    0.324672   -0.003075
   1 C     6.0000    0    12.011    0.768147    0.595721    0.001670
   2 C     6.0000    0    12.011   -0.335516    3.050907    0.008093
   3 C     6.0000    0    12.011    1.246972    5.211499    0.012267
   4 C     6.0000    0    12.011    3.901834    4.877129    0.008198
   5 C     6.0000    0    12.011    4.938289    2.536034    0.000458
   6 C     6.0000    0    12.011    4.542129   -2.139236   -0.007899
   7 C     6.0000    0    12.011    2.925278   -4.272515    0.007340
   8 C     6.0000    0    12.011    0.288678   -3.933939    0.014216
   9 C     6.0000    0    12.011   -0.826887   -1.587436    0.004154
  10 C     6.0000    0    12.011   -3.560614   -1.269911   -0.002504
  11 C     6.0000    0    12.011   -4.629170    1.171096    0.003492
  12 C     6.0000    0    12.011   -2.996389    3.382549    0.013040
  13 C     6.0000    0    12.011   -3.954321    5.827536    0.024209
  14 C     6.0000    0    12.011   -2.386381    7.932299    0.028628
  15 C     6.0000    0    12.011    0.189420    7.637908    0.022121
  16 C     6.0000    0    12.011    7.167256   -2.577076   -0.026237
  17 C     6.0000    0    12.011    8.133621   -4.978489   -0.024967
  18 C     6.0000    0    12.011    6.525575   -7.078923   -0.004069
  19 C     6.0000    0    12.011    3.968308   -6.725383    0.011340
  20 C     6.0000    0    12.011   -5.187812   -3.357274   -0.018999
  21 C     6.0000    0    12.011   -7.772758   -3.084463   -0.025490
  22 C     6.0000    0    12.011   -8.823024   -0.681877   -0.016407
  23 C     6.0000    0    12.011   -7.265817    1.399131   -0.003124
  24 H     1.0000    0     1.008    5.088265    6.539661    0.012567
  25 H     1.0000    0     1.008    6.967541    2.360641   -0.000300
  26 H     1.0000    0     1.008   -0.836931   -5.632731    0.026458
  27 H     1.0000    0     1.008   -5.964904    6.151825    0.029977
  28 H     1.0000    0     1.008   -3.212557    9.799238    0.037034
  29 H     1.0000    0     1.008    1.429167    9.260078    0.025197
  30 H     1.0000    0     1.008    8.470324   -1.010463   -0.043651
  31 H     1.0000    0     1.008   10.155430   -5.261363   -0.040280
  32 H     1.0000    0     1.008    7.316234   -8.960589   -0.001695
  33 H     1.0000    0     1.008    2.698330   -8.325356    0.025336
  34 H     1.0000    0     1.008   -4.429317   -5.247276   -0.029070
  35 H     1.0000    0     1.008   -8.975115   -4.733688   -0.038436
  36 H     1.0000    0     1.008  -10.850048   -0.443643   -0.021193
  37 H     1.0000    0     1.008   -8.133278    3.241819    0.001051

--------------------------------
INTERNAL COORDINATES (ANGSTROEM)
--------------------------------
 C      0   0   0     0.000000000000     0.00000000     0.00000000
 C      1   0   0     1.411628479054     0.00000000     0.00000000
 C      2   1   0     1.424465100135   120.03696048     0.00000000
 C      3   2   1     1.417211839931   119.57480589   359.93618342
 C      4   3   2     1.415992813774   119.04164306     0.04276974
 C      5   4   3     1.354840813251   121.05854955     0.00000000
 C      1   2   3     1.432274337693   120.28053128   179.95974793
 C      7   1   2     1.416507596319   118.39101029   359.63244733
 C      8   7   1     1.406690122424   119.84195231     0.30861709
 C      9   8   7     1.374910271762   122.74359401     0.06812701
 C     10   9   8     1.456356004376   122.05268342   179.65649259
 C     11  10   9     1.410072807802   120.26623085   179.59479835
 C      3   2   1     1.418970115647   121.30968333   180.00189500
 C     13   3   2     1.389603575135   118.49965088   179.87580504
 C     14  13   3     1.388874070111   121.92093414     0.05016861
 C     15  14  13     1.371933139192   120.16368141     0.00000000
 C      7   1   2     1.408380149956   123.91761223   179.65132331
 C     17   7   1     1.369807456018   121.38864571   179.86863511
 C     18  17   7     1.399878463896   120.64171295   359.97016487
 C     19  18  17     1.366142332347   119.56719565     0.09906979
 C     11  10   9     1.400584099428   121.31306068   359.49132244
 C     21  11  10     1.375495672717   121.91373052   180.00113983
 C     22  21  11     1.387570576596   119.63580975     0.00000000
 C     23  22  21     1.375419582602   119.58118535     0.05349295
 H      5   4   3     1.080824082143   118.33403195   180.03568713
 H      6   5   4     1.077837370490   118.81989352   180.06836583
 H      9   8   7     1.078410686832   116.21107959   180.01963202
 H     14  13   3     1.077709600980   120.55772092   180.05659863
 H     15  14  13     1.080364012258   119.44511430   179.98943780
 H     16  15  14     1.080405036964   120.86843779   179.99137933
 H     17   7   1     1.078349291213   120.28557098   359.80595158
 H     18  17   7     1.080346467214   119.88405070   179.96781421
 H     19  18  17     1.080067804844   119.77097666   180.05334938
 H     20  19  18     1.080992991728   120.57092862   179.92751341
 H     21  11  10     1.077694326293   120.19632362   359.93496455
 H     22  21  11     1.080062793211   120.06934625   179.99445693
 H     23  22  21     1.080040969623   120.31440683   180.00580414
 H     24  23  22     1.077756866889   117.98381599   179.91541045

---------------------------
INTERNAL COORDINATES (A.U.)
---------------------------
 C      0   0   0     0.000000000000     0.00000000     0.00000000
 C      1   0   0     2.667591228255     0.00000000     0.00000000
 C      2   1   0     2.691848926584   120.03696048     0.00000000
 C      3   2   1     2.678142251221   119.57480589   359.93618342
 C      4   3   2     2.675838625634   119.04164306     0.04276974
 C      5   4   3     2.560278092103   121.05854955     0.00000000
 C      1   2   3     2.706606246883   120.28053128   179.95974793
 C      7   1   2     2.676811423662   118.39101029   359.63244733
 C      8   7   1     2.658259086673   119.84195231     0.30861709
 C      9   8   7     2.598203872346   122.74359401     0.06812701
 C     10   9   8     2.752114001762   122.05268342   179.65649259
 C     11  10   9     2.664651435635   120.26623085   179.59479835
 C      3   2   1     2.681464910791   121.30968333   180.00189500
 C     13   3   2     2.625970191723   118.49965088   179.87580504
 C     14  13   3     2.624591627015   121.92093414     0.05016861
 C     15  14  13     2.592577907124   120.16368141     0.00000000
 C      7   1   2     2.661452775867   123.91761223   179.65132331
 C     17   7   1     2.588560948076   121.38864571   179.86863511
 C     18  17   7     2.645386917537   120.64171295   359.97016487
 C     19  18  17     2.581634868093   119.56719565     0.09906979
 C     11  10   9     2.646720375444   121.31306068   359.49132244
 C     21  11  10     2.599310119829   121.91373052   180.00113983
 C     22  21  11     2.622128381254   119.63580975     0.00000000
 C     23  22  21     2.599166330351   119.58118535     0.05349295
 H      5   4   3     2.042461514196   118.33403195   180.03568713
 H      6   5   4     2.036817447132   118.81989352   180.06836583
 H      9   8   7     2.037900858006   116.21107959   180.01963202
 H     14  13   3     2.036575997749   120.55772092   180.05659863
 H     15  14  13     2.041592108111   119.44511430   179.98943780
 H     16  15  14     2.041669633572   120.86843779   179.99137933
 H     17   7   1     2.037784837101   120.28557098   359.80595158
 H     18  17   7     2.041558952784   119.88405070   179.96781421
 H     19  18  17     2.041032357221   119.77097666   180.05334938
 H     20  19  18     2.042780707054   120.57092862   179.92751341
 H     21  11  10     2.036547132775   120.19632362   359.93496455
 H     22  21  11     2.041022886607   120.06934625   179.99445693
 H     23  22  21     2.040981646003   120.31440683   180.00580414
 H     24  23  22     2.036665317374   117.98381599   179.91541045

---------------------
BASIS SET INFORMATION
---------------------
There are 2 groups of distinct atoms

 Group   1 Type C   : 15s8p3d2f1g contracted to 7s4p3d2f1g pattern {8211111/5111/111/11/1}
 Group   2 Type H   : 7s3p2d1f contracted to 4s3p2d1f pattern {4111/111/11/1}

Atom   0C    basis set group =>   1
Atom   1C    basis set group =>   1
Atom   2C    basis set group =>   1
Atom   3C    basis set group =>   1
Atom   4C    basis set group =>   1
Atom   5C    basis set group =>   1
Atom   6C    basis set group =>   1
Atom   7C    basis set group =>   1
Atom   8C    basis set group =>   1
Atom   9C    basis set group =>   1
Atom  10C    basis set group =>   1
Atom  11C    basis set group =>   1
Atom  12C    basis set group =>   1
Atom  13C    basis set group =>   1
Atom  14C    basis set group =>   1
Atom  15C    basis set group =>   1
Atom  16C    basis set group =>   1
Atom  17C    basis set group =>   1
Atom  18C    basis set group =>   1
Atom  19C    basis set group =>   1
Atom  20C    basis set group =>   1
Atom  21C    basis set group =>   1
Atom  22C    basis set group =>   1
Atom  23C    basis set group =>   1
Atom  24H    basis set group =>   2
Atom  25H    basis set group =>   2
Atom  26H    basis set group =>   2
Atom  27H    basis set group =>   2
Atom  28H    basis set group =>   2
Atom  29H    basis set group =>   2
Atom  30H    basis set group =>   2
Atom  31H    basis set group =>   2
Atom  32H    basis set group =>   2
Atom  33H    basis set group =>   2
Atom  34H    basis set group =>   2
Atom  35H    basis set group =>   2
Atom  36H    basis set group =>   2
Atom  37H    basis set group =>   2


           ************************************************************
           *        Program running with 10 parallel MPI-processes    *
           *              working on a common directory               *
           ************************************************************
------------------------------------------------------------------------------
                             ORCA STARTUP CALCULATIONS
------------------------------------------------------------------------------
------------------------------------------------------------------------------
                   ___                                                        
                  /   \      - P O W E R E D   B Y -                         
                 /     \                                                     
                 |  |  |   _    _      __       _____    __    __             
                 |  |  |  | |  | |    /  \     |  _  \  |  |  /  |          
                  \  \/   | |  | |   /    \    | | | |  |  | /  /          
                 / \  \   | |__| |  /  /\  \   | |_| |  |  |/  /          
                |  |  |   |  __  | /  /__\  \  |    /   |      \           
                |  |  |   | |  | | |   __   |  |    \   |  |\   \          
                \     /   | |  | | |  |  |  |  | |\  \  |  | \   \       
                 \___/    |_|  |_| |__|  |__|  |_| \__\ |__|  \__/        
                                                                              
                      - O R C A' S   B I G   F R I E N D -                    
                                      &                                       
                       - I N T E G R A L  F E E D E R -                       
                                                                              
 v1 FN, 2020, v2 2021, v3 2022-2024                                           
------------------------------------------------------------------------------


----------------------
SHARK INTEGRAL PACKAGE
----------------------

Number of atoms                             ...     38
Number of basis functions                   ...   1788
Number of shells                            ...    548
Maximum angular momentum                    ...      4
Integral batch strategy                     ... SHARK/LIBINT Hybrid
RI-J (if used) integral strategy            ... SPLIT-RIJ (Revised 2003 algorithm where possible)
Printlevel                                  ...      1
Contraction scheme used                     ... SEGMENTED contraction
Prescreening option                         ... SCHWARTZ
   Thresh                                   ... 1.000e-10
   Tcut                                     ... 1.000e-11
   Tpresel                                  ... 1.000e-11 
Coulomb Range Separation                    ... NOT USED
Exchange Range Separation                   ... NOT USED
Multipole approximations                    ... NOT USED
Finite Nucleus Model                        ... NOT USED
CABS basis                                  ... NOT available
Auxiliary Coulomb fitting basis             ... NOT available
Auxiliary J/K fitting basis                 ... NOT available
Auxiliary Correlation fitting basis         ... NOT available
Auxiliary 'external' fitting basis          ... NOT available

Checking pre-screening integrals            ... done (  0.0 sec) Dimension = 548
Check shell pair data                       ... done (  0.0 sec)
Shell pair information
Shell pair cut-off parameter TPreSel        ...   1.0e-11
Total number of shell pairs                 ...    150426
Shell pairs after pre-screening             ...     90929
Total number of primitive shell pairs       ...    386901
Primitive shell pairs kept                  ...    161582
          la=0 lb=0:  13878 shell pairs
          la=1 lb=0:  20428 shell pairs
          la=1 lb=1:   7080 shell pairs
          la=2 lb=0:  12473 shell pairs
          la=2 lb=1:   9208 shell pairs
          la=2 lb=2:   2985 shell pairs
          la=3 lb=0:   7487 shell pairs
          la=3 lb=1:   5508 shell pairs
          la=3 lb=2:   3384 shell pairs
          la=3 lb=3:   1036 shell pairs
          la=4 lb=0:   2951 shell pairs
          la=4 lb=1:   2185 shell pairs
          la=4 lb=2:   1352 shell pairs
          la=4 lb=3:    798 shell pairs
          la=4 lb=4:    176 shell pairs

Calculating one electron integrals          ... done (  0.2 sec)
Calculating Nuclear repulsion               ... done (  0.0 sec) ENN=   1814.456324803226 Eh

Diagonalization of the overlap matrix:
Smallest eigenvalue                        ... 5.985e-08
Time for diagonalization                   ...    0.308 sec
Threshold for overlap eigenvalues          ... 1.000e-07
Number of eigenvalues below threshold      ... 1
Smallest eigenvalue above threshold        ... 8.780e-07

IMPORTANT:
Smallest eigenvalue of S below the DiffSThresh (1.000e-06) while
Thresh>1e-12 and/or TCut>1e-13! In order to avoid SCF convergence issues,
Thresh will be set to at least 1e-12 and TCut to at least 1e-13.
This can be turned off by adding %SCF DiffSThresh -1 END to the input.

Time for construction of square roots      ...    0.369 sec
Total time needed                          ...    0.710 sec

-------------------
DFT GRID GENERATION
-------------------

General Integration Accuracy     IntAcc      ... 4.959
Radial Grid Type                 RadialGrid  ... OptM3 with GC (2021)
Angular Grid (max. ang.)         AngularGrid ... 6 (Lebedev-590)
Angular grid pruning method      GridPruning ... 4 (adaptive)
Weight generation scheme         WeightScheme... mBecke (2022)
Basis function cutoff            BFCut       ... 1.0000e-10
Integration weight cutoff        WCut        ... 1.0000e-14
Partially contracted basis set               ... off
Rotationally invariant grid construction     ... off
Angular grids for H and He will be reduced by one unit
Diffuse basis detected: some atoms will have their outermost
                        angular grid increased by 1.

Total number of grid points                  ...   467531
Total number of batches                      ...     7322
Average number of points per batch           ...       63
Average number of grid points per atom       ...    12303
Initializing property integral containers    ... done (  4.9 sec)

SHARK setup successfully completed in  12.1 seconds

Maximum memory used throughout the entire STARTUP-calculation: 224.4 MB


           ************************************************************
           *        Program running with 10 parallel MPI-processes    *
           *              working on a common directory               *
           ************************************************************
-------------------------------------------------------------------------------
                                 ORCA GUESS
                   Start orbitals & Density for SCF / CASSCF
-------------------------------------------------------------------------------

------------
SCF SETTINGS
------------
Hamiltonian:
 Density Functional     Method          .... DFT(GTOs)
 Exchange Functional    Exchange        .... PBE
   PBE kappa parameter   XKappa         ....  0.804000
   PBE mue parameter    XMuePBE         ....  0.219520
 Correlation Functional Correlation     .... P86
 LDA part of GGA corr.  LDAOpt          .... VWN-5
 Gradients option       PostSCFGGA      .... off
 Hybrid DFT is turned on
   Fraction HF Exchange ScalHFX         ....  0.690000
   Scaling of DF-GGA-X  ScalDFX         ....  0.310000
   Scaling of DF-GGA-C  ScalDFC         ....  0.403800
   Scaling of DF-LDA-C  ScalLDAC        ....  0.403800
   Perturbative correction              ....  1.000000


General Settings:
 Integral files         IntName         .... compas3x_hc_c24h14_0pent_8_qz_nori
 Hartree-Fock type      HFTyp           .... RHF
 Total Charge           Charge          ....    0
 Multiplicity           Mult            ....    1
 Number of Electrons    NEL             ....  158
 Basis Dimension        Dim             .... 1788
 Nuclear Repulsion      ENuc            ....   1814.4563248032 Eh

Convergence Acceleration:
 AO-DIIS                CNVDIIS         .... on
   Start iteration      DIISMaxIt       ....    12
   Startup error        DIISStart       ....  0.200000
   # of expansion vecs  DIISMaxEq       ....     5
   Bias factor          DIISBfac        ....   1.050
   Max. coefficient     DIISMaxC        ....  10.000
 MO-DIIS                CNVKDIIS        .... off
 Trust-Rad. Augm. Hess. CNVTRAH         .... auto
   Auto Start mean grad. ratio tolernc. ....  1.125000
   Auto Start start iteration           ....    50
   Auto Start num. interpolation iter.  ....    10
   Max. Number of Micro iterations      ....    24
   Max. Number of Macro iterations      .... Maxiter - #DIIS iter
   Number of Davidson start vectors     ....     2
   Converg. threshold    (grad. norm)   ....   5.000e-05
   Grad. Scal. Fac. for Micro threshold ....   0.100
   Minimum threshold for Micro iter.    ....   1.000e-02
   NR start threshold (gradient norm)   ....   1.000e-04
   Initial trust radius                 ....   0.400
   Minimum AH scaling param. (alpha)    ....   1.000
   Maximum AH scaling param. (alpha)    .... 1000.000
   Quad. conv. algorithm                .... NR
   White noise on init. David. guess    .... on
   Maximum white noise                  ....   0.010
   Pseudo random numbers                .... off
   Inactive MOs                         .... canonical
   Orbital update algorithm             .... Taylor
   Preconditioner                       .... Diag
   Full preconditioner red. dimension   ....   250
 SOSCF                  CNVSOSCF        .... on
   Start iteration      SOSCFMaxIt      ....   150
   Startup grad/error   SOSCFStart      ....  0.003300
   Hessian update       SOSCFHessUp     .... L-BFGS
 Level Shifting         CNVShift        .... on
   Level shift para.    LevelShift      ....    0.2500
   Turn off err/grad.   ShiftErr        ....    0.0010
 Zerner damping         CNVZerner       .... off
 Static damping         CNVDamp         .... on
   Fraction old density DampFac         ....    0.7000
   Max. Damping (<1)    DampMax         ....    0.9800
   Min. Damping (>=0)   DampMin         ....    0.0000
   Turn off err/grad.   DampErr         ....    0.1000

SCF Procedure:
 Maximum # iterations   MaxIter         ....   125
 SCF integral mode      SCFMode         .... Direct
   Integral package                     .... SHARK and LIBINT hybrid scheme
 Reset frequency        DirectResetFreq ....    20
 Integral Threshold     Thresh          ....  1.000e-12 Eh
 Primitive CutOff       TCut            ....  1.000e-13 Eh

Convergence Tolerance:
 Convergence Check Mode ConvCheckMode   .... Total+1el-Energy
 Convergence forced     ConvForced      .... 0
 Energy Change          TolE            ....  1.000e-06 Eh
 1-El. energy change                    ....  1.000e-03 Eh
 Orbital Gradient       TolG            ....  5.000e-05
 Orbital Rotation angle TolX            ....  5.000e-05
 DIIS Error             TolErr          ....  1.000e-06

------------------------------
INITIAL GUESS: MODEL POTENTIAL
------------------------------
Loading Hartree-Fock densities                     ... done
Calculating cut-offs                               ... done
Initializing the effective Hamiltonian             ... done
Setting up the integral package (SHARK)            ... done
Starting the Coulomb interaction                   ... done (   0.7 sec)
Making the grid                                    ... done (   0.3 sec)
Mapping shells                                     ... done
Starting the XC term evaluation                    ... done (   0.6 sec)
  promolecular density results
     # of electrons  =    157.981833052
     EX              =   -127.050132582
     EC              =      0.198377505
     EX+EC           =   -126.851755077
Transforming the Hamiltonian                       ... done (   0.2 sec)
Diagonalizing the Hamiltonian                      ... done (   0.3 sec)
Back transforming the eigenvectors                 ... done (   0.1 sec)
Now organizing SCF variables                       ... done
                      ------------------
                      INITIAL GUESS DONE (   2.3 sec)
                      ------------------
             **** ENERGY FILE WAS UPDATED (compas3x_hc_c24h14_0pent_8_qz_nori.en.tmp) ****
Finished Guess after   5.1 sec
Maximum memory used throughout the entire GUESS-calculation: 227.2 MB


           ************************************************************
           *        Program running with 10 parallel MPI-processes    *
           *              working on a common directory               *
           ************************************************************

-------------------------------------------------------------------------------------------
                                      ORCA LEAN-SCF
                              memory conserving SCF solver
-------------------------------------------------------------------------------------------

----------------------------------------D-I-I-S--------------------------------------------
Iteration    Energy (Eh)           Delta-E    RMSDP     MaxDP     DIISErr   Damp  Time(sec)
-------------------------------------------------------------------------------------------
               ***  Starting incremental Fock matrix formation  ***
