
                                 *****************
                                 * O   R   C   A *
                                 *****************

                                            #,                                       
                                            ###                                      
                                            ####                                     
                                            #####                                    
                                            ######                                   
                                           ########,                                 
                                     ,,################,,,,,                         
                               ,,#################################,,                 
                          ,,##########################################,,             
                       ,#########################################, ''#####,          
                    ,#############################################,,   '####,        
                  ,##################################################,,,,####,       
                ,###########''''           ''''###############################       
              ,#####''   ,,,,##########,,,,          '''####'''          '####       
            ,##' ,,,,###########################,,,                        '##       
           ' ,,###''''                  '''############,,,                           
         ,,##''                                '''############,,,,        ,,,,,,###''
      ,#''                                            '''#######################'''  
     '                                                          ''''####''''         
             ,#######,   #######,   ,#######,      ##                                
            ,#'     '#,  ##    ##  ,#'     '#,    #''#        ,####,   ,####,        
            ##       ##  ##   ,#'  ##            #'  '#       #'       #'  '#        
            ##       ##  #######   ##           ,######,      #####,   #    #        
            '#,     ,#'  ##    ##  '#,     ,#' ,#      #,     #,   #   #,  ,#        
             '#######'   ##     ##  '#######'  #'      '#     '####' # '####'        



                #########################################################
                #                        -***-                          #
                #          Department of theory and spectroscopy        #
                #                                                       #
                #                      Frank Neese                      #
                #                                                       #
                #     Directorship, Architecture, Infrastructure        #
                #                    SHARK, DRIVERS                     #
                #        Core code/Algorithms in most modules           #
                #                                                       #
                #        Max Planck Institute fuer Kohlenforschung      #
                #                Kaiser Wilhelm Platz 1                 #
                #                 D-45470 Muelheim/Ruhr                 #
                #                      Germany                          #
                #                                                       #
                #                  All rights reserved                  #
                #                        -***-                          #
                #########################################################


                         Program Version 6.0.1  -  RELEASE   -


 With contributions from (in alphabetic order):
[Max-Planck-Institut fuer Kohlenforschung]                               
  Daniel Aravena         : Magnetic Suceptibility                        
  Michael Atanasov       : Ab Initio Ligand Field Theory (pilot matlab implementation)
  Alexander A. Auer      : GIAO ZORA, VPT2 properties, NMR spectrum      
  Ute Becker             : All parallelization in ORCA, NUMFREQ, NUMCALC 
  Giovanni Bistoni       : ED, misc. LED, open-shell LED, HFLD           
  Martin Brehm           : Molecular dynamics                            
  Dmytro Bykov           : pre 5.0 version of the SCF Hessian            
  Marcos Casanova-Páez   : Triplet and SCS-CIS(D). UHF-(DLPNO)-IP/EA/STEOM-CCSD. UHF-CVS-IP/STEOM-CCSD   
  Vijay G. Chilkuri      : MRCI spin determinant printing, contributions to CSF-ICE 
  Pauline Colinet        : FMM embedding                                 
  Dipayan Datta          : RHF DLPNO-CCSD density                        
  Achintya Kumar Dutta   : EOM-CC, STEOM-CC                              
  Nicolas Foglia         : Exact transition moments, OPA infrastructure, MCD improvements    
  Dmitry Ganyushin       : Spin-Orbit,Spin-Spin,Magnetic field MRCI      
  Miquel Garcia-Rates    : C-PCM and meta-GGA Hessian, CCSD/C-PCM, Gaussian charge scheme 
  Tiago L. C. Gouveia    : GS-ROHF, GS-ROCIS                             
  Yang Guo               : DLPNO-NEVPT2, F12-NEVPT2, CIM, IAO-localization        
  Andreas Hansen         : Spin unrestricted coupled pair/coupled cluster methods 
  Ingolf Harden          : AUTO-CI MPn and infrastructure                
  Benjamin Helmich-Paris : MC-RPA, TRAH-(SCF,CASSCF), AVAS, COSX integrals, SCF dyn. polar. 
  Lee Huntington         : MR-EOM, pCC                                   
  Robert Izsak           : Overlap fitted RIJCOSX, COSX-SCS-MP3, EOM     
  Riya Kayal             : Wick's Theorem for AUTO-CI, AUTO-CI UHF-CCSDT 
  Emily Kempfer          : AUTO-CI, RHF CISDT and CCSDT                  
  Christian Kollmar      : KDIIS, OOCD, Brueckner-CCSD(T), CCSD density, CASPT2, CASPT2-K, improved NEVPT2 
  Axel Koslowski         : Symmetry handling                             
  Simone Kossmann        : meta-GGA functionals, TD-DFT gradient, OOMP2, (MP2 Hessian; deprecated post 5.0) 
  Lucas Lang             : DCDCAS                                        
  Marvin Lechner         : AUTO-CI (C++ implementation), FIC-MRCC        
  Spencer Leger          : CASSCF response                               
  Dagmar Lenk            : GEPOL surface, SMD, ORCA-2-JSON               
  Dimitrios Liakos       : Extrapolation schemes; Compound Job, initial MDCI parallelization 
  Dimitrios Manganas     : Further ROCIS development; embedding schemes. LFT, Crystal Embedding 
  Dimitrios Pantazis     : SARC Basis sets                               
  Anastasios Papadopoulos: AUTO-CI, single reference methods and gradients 
  Taras Petrenko         : pre 6.0 DFT Hessian and TD-DFT gradient, (ASA, deprecated), ECA, 1-Electron XAS/XES, NRVS 
  Peter Pinski           : DLPNO-MP2, DLPNO-MP2 Gradient                 
  Christoph Reimann      : Effective Core Potentials                     
  Marius Retegan         : Local ZFS, SOC                                
  Christoph Riplinger    : Optimizer, TS searches, QM/MM, DLPNO-CCSD(T), (RO)-DLPNO pert. Triples 
  Michael Roemelt        : Original ROCIS implementation                 
  Masaaki Saitow         : Open-shell DLPNO-CCSD energy and density      
  Barbara Sandhoefer     : DKH picture change effects                    
  Kantharuban Sivalingam : CASSCF convergence/infrastructure, NEVPT2 and variants, FIC-MRCI 
  Bernardo de Souza      : ESD, SOC TD-DFT                               
  Georgi L. Stoychev     : AutoAux, RI-MP2 NMR, DLPNO-MP2 response, X2C  
  Van Anh Tran           : RI-MP2 g-tensors                              
  Willem Van den Heuvel  : Paramagnetic NMR                              
  Zikuan Wang            : NOTCH, Electric field optimization            
  Frank Wennmohs         : Technical directorship and infrastructure     
  Hang Xu                : AUTO-CI-Response properties                   
                                                                         
[FACCTs GmbH]                                                            
  Markus Bursch, Miquel Garcia-Rates, Christoph Riplinger, Bernardo de Souza, Georgi L. Stoychev 
                                                                 
  APM, Basis sets (HGBS, AHGBS, def-TZVP (Ac-Lr), def2-XVPD (La-Lu)), CI-OPT, improved COSX, DLPNO-Multilevel,           
  DOCKER, DRACO, updates on ESD, GOAT, IRC, LR-CPCM, MBIS, meta-GGA TD-DFT gradient, ML-optimized integration grids, 
  MM, NACMEs, nearIR, NEB, NEB-TS, NL-DFT gradient (VV10), 2- and 3-layer-ONIOM, interface openCOSMO-RS, QMMM,   
  Crystal-QMMM, SF, symmetry and pop. for TD-DFT, r2SCAN hybrids, SOLVATOR                                   
                                                                         
[Other institutions]                                                     
  V. Asgeirsson          : NEB                                           
  Christoph Bannwarth    : sTDA-DFT, sTD-DFT, PBEh-3c, B97-3c, D3        
  Sebastian Ehlert       : rSCAN, r2SCAN, r2SCAN-3c, D4, dhf basis sets  
  Marvin Friede          : D4 for Fr, Ra, Ac-Lr                          
  Lars Goerigk           : TD-DFT with DH, B97 family of functionals     
  Stefan Grimme          : VdW corrections, initial TS optimization, DFT functionals, gCP, sTDA/sTD-DF 
  Waldemar Hujo          : DFT-NL                                        
  H. Jonsson             : NEB                                           
  Holger Kruse           : gCP                                           
  Marcel Mueller         : wB97X-3c, vDZP basis set                      
  Hagen Neugebauer       : wr2SCAN                                       
  Tobias Risthaus        : range-separated hybrid DFT                    
  Lukas Wittmann         : regularized MP2, r2SCAN double-hybrids, wr2SCAN        
                                                                         
We gratefully acknowledge several colleagues who have allowed us to      
interface, adapt or use parts of their codes:                            
  Ed Valeev, F. Pavosevic, A. Kumar             : LibInt (2-el integral package), F12 methods 
  Garnet Chan, S. Sharma, J. Yang, R. Olivares  : DMRG                   
  Ulf Ekstrom                                   : XCFun DFT Library      
  Mihaly Kallay                                 : mrcc  (arbitrary order and MRCC methods)
  Frank Weinhold                                : gennbo (NPA and NBO analysis)           
  Simon Mueller                                 : openCOSMO-RS                            
  Christopher J. Cramer and Donald G. Truhlar   : smd solvation model                     
  S Lehtola, MJT Oliveira, MAL Marques          : LibXC Library                           
  Liviu Ungur et al                             : ANISO software                          


 Your calculation uses the libint2 library for the computation of 2-el integrals
 For citations please refer to: http://libint.valeyev.net

 Your ORCA version has been built with support for libXC version: 6.2.2
 For citations please refer to: https://libxc.gitlab.io

 This ORCA versions uses:
   CBLAS   interface :  Fast vector & matrix operations
   LAPACKE interface :  Fast linear algebra routines
   SCALAPACK package :  Parallel linear algebra routines
   Shared memory     :  Shared parallel matrices
   BLAS/LAPACK       :  OpenBLAS 0.3.27  USE64BITINT DYNAMIC_ARCH NO_AFFINITY SapphireRapids SINGLE_THREADED
        Core in use  :  SapphireRapids
   Copyright (c) 2011-2014, The OpenBLAS Project


Warning! Weird basis set assignment to AuxJK basis!


***************************************
The coordinates will be read from file: /g/data/kx58/rs2200/dhdft/inputs/compas3D-xyzs/hc_c40h22_0pent_1.xyz
***************************************


Your calculation utilizes the atom-pairwise dispersion correction
based on EEQ partial charges (D4)


================================================================================

----- Orbital basis set information -----
Your calculation utilizes the basis: def2-QZVPP
   F. Weigend and R. Ahlrichs, Phys. Chem. Chem. Phys. 7, 3297 (2005).

----- AuxC basis set information -----
Your calculation utilizes the auxiliary basis: def2-QZVPP/C
  H-La, Hf-Rn : A. Hellweg, C. Hattig, S. Hofener and W. Klopper, Theor. Chem. Acc. 117, 587 (2007).
        Ce-Lu : J. Chmela and M. E. Harding, Mol. Phys. (2018).

----- AuxJK basis set information -----
Your calculation utilizes the auxiliary basis: def2-QZVPP/C
  H-La, Hf-Rn : A. Hellweg, C. Hattig, S. Hofener and W. Klopper, Theor. Chem. Acc. 117, 587 (2007).
        Ce-Lu : J. Chmela and M. E. Harding, Mol. Phys. (2018).

================================================================================
                                        WARNINGS
                       Please study these warnings very carefully!
================================================================================


WARNING: No MP2 level density has been requested!
         To calculate MP2 level properties use
         %mp2 Density relaxed end
         or
         %mp2 Density unrelaxed end
         Otherwise for double-hybrid DFT only the energy is correct!

================================================================================
                                       INPUT FILE
================================================================================
NAME = compas3D_hc_c40h22_0pent_1_qz_riri.inp
|  1> ! RKS revDSD-PBEP86-D4/2021 defgrid3  RIJK NOPOP NoFrozencore NoUseSym
|  2> 
|  3> %basis
|  4> Basis "def2-QZVPP"
|  5> AuxJK "def2-QZVPP/C"
|  6> AuxC "def2-QZVPP/C"
|  7> end
|  8> 
|  9> %method
| 10> ScalHFX 0.69
| 11> ScalDFX 0.31
| 12> ScalDFC 0.4038
| 13> ScalLDAC 0.4038
| 14> 
| 15> D4S6 0.4612
| 16> D4S8 0.0
| 17> D4A1 0.44
| 18> D4A2 3.60
| 19> end
| 20> 
| 21> %mp2
| 22> PS 0.5979
| 23> PT 0.0571
| 24> 
| 25> end
| 26> 
| 27> %pal
| 28> nprocs 104
| 29> end
| 30> 
| 31> *XYZFILE 0 1 /g/data/kx58/rs2200/dhdft/inputs/compas3D-xyzs/hc_c40h22_0pent_1.xyz
| 32> 
| 33>                          ****END OF INPUT****
================================================================================

                       ****************************
                       * Single Point Calculation *
                       ****************************

---------------------------------
CARTESIAN COORDINATES (ANGSTROEM)
---------------------------------
  C      3.024034   -0.377535   -0.752782
  C      2.039944   -1.389739   -0.895856
  C      0.641323   -1.025010   -0.887363
  C      0.272262    0.308673   -0.666960
  C      1.256933    1.216253   -0.081874
  C      2.614950    0.955425   -0.315848
  C      4.371019   -0.711610   -0.947353
  C      4.743025   -2.010868   -1.243499
  C      3.782704   -3.011673   -1.335988
  C      2.428619   -2.728732   -1.156352
  C      1.402520   -3.780056   -1.236364
  C      0.036709   -3.431649   -1.235293
  C     -0.359694   -2.017608   -1.155378
  C     -1.667492   -1.615263   -1.297102
  C     -2.030742   -0.250605   -1.307058
  C     -1.044132    0.737409   -1.050643
  C      0.897710    2.369532    0.712781
  C      1.825867    3.436067    0.774772
  C      3.164608    3.216185    0.359807
  C      3.563542    1.988078   -0.080240
  C      1.753232   -5.140710   -1.300825
  C      0.795501   -6.134223   -1.368331
  C     -0.557920   -5.788617   -1.367523
  C     -0.922909   -4.457845   -1.299371
  C     -3.362614    0.146718   -1.603000
  C     -3.693148    1.470949   -1.711712
  C     -2.689466    2.455495   -1.564040
  C     -1.404457    2.098167   -1.245999
  C     -0.355260    2.524083    1.425600
  C     -0.790315    3.826958    1.729651
  C      0.112359    4.926316    1.606679
  C      1.402664    4.720512    1.231758
  C     -1.177997    1.415441    1.870738
  C     -2.524351    1.659786    2.244292
  C     -2.992556    3.007999    2.341649
  C     -2.135725    4.045819    2.167486
  C     -0.682657    0.097617    2.019139
  C     -1.507392   -0.941487    2.382153
  C     -2.873559   -0.710670    2.631141
  C     -3.363281    0.572776    2.584156
  H      5.144834    0.048382   -0.856585
  H      5.796096   -2.254102   -1.396696
  H      4.105259   -4.025033   -1.568440
  H     -2.457771   -2.343214   -1.474652
  H      3.882114    4.035070    0.444308
  H      4.616172    1.820453   -0.299772
  H      2.802602   -5.430522   -1.281180
  H      1.099063   -7.181944   -1.411769
  H     -1.326147   -6.563126   -1.411084
  H     -1.982683   -4.208398   -1.281381
  H     -4.114102   -0.629947   -1.762459
  H     -4.717929    1.767452   -1.944012
  H     -2.936066    3.508484   -1.712542
  H     -0.642204    2.869444   -1.166510
  H     -0.238938    5.923773    1.879527
  H      2.124324    5.540159    1.226653
  H     -4.032024    3.182699    2.627755
  H     -2.464453    5.074352    2.332092
  H      0.376649   -0.093285    1.866437
  H     -1.094659   -1.946847    2.484936
  H     -3.529128   -1.542066    2.897554
  H     -4.406869    0.777859    2.833771

----------------------------
CARTESIAN COORDINATES (A.U.)
----------------------------
  NO LB      ZA    FRAG     MASS         X           Y           Z
   0 C     6.0000    0    12.011    5.714596   -0.713438   -1.422551
   1 C     6.0000    0    12.011    3.854935   -2.626226   -1.692922
   2 C     6.0000    0    12.011    1.211925   -1.936988   -1.676872
   3 C     6.0000    0    12.011    0.514500    0.583308   -1.260371
   4 C     6.0000    0    12.011    2.375260    2.298386   -0.154719
   5 C     6.0000    0    12.011    4.941539    1.805491   -0.596866
   6 C     6.0000    0    12.011    8.260029   -1.344748   -1.790237
   7 C     6.0000    0    12.011    8.963018   -3.799989   -2.349873
   8 C     6.0000    0    12.011    7.148275   -5.691237   -2.524652
   9 C     6.0000    0    12.011    4.589425   -5.156557   -2.185189
  10 C     6.0000    0    12.011    2.650378   -7.143271   -2.336389
  11 C     6.0000    0    12.011    0.069370   -6.484877   -2.334365
  12 C     6.0000    0    12.011   -0.679724   -3.812727   -2.183348
  13 C     6.0000    0    12.011   -3.151102   -3.052405   -2.451168
  14 C     6.0000    0    12.011   -3.837547   -0.473575   -2.469981
  15 C     6.0000    0    12.011   -1.973124    1.393501   -1.985427
  16 C     6.0000    0    12.011    1.696427    4.477766    1.346961
  17 C     6.0000    0    12.011    3.450390    6.493226    1.464107
  18 C     6.0000    0    12.011    5.980242    6.077708    0.679936
  19 C     6.0000    0    12.011    6.734118    3.756923   -0.151631
  20 C     6.0000    0    12.011    3.313129   -9.714534   -2.458203
  21 C     6.0000    0    12.011    1.503279  -11.592002   -2.585771
  22 C     6.0000    0    12.011   -1.054316  -10.938901   -2.584244
  23 C     6.0000    0    12.011   -1.744046   -8.424106   -2.455455
  24 C     6.0000    0    12.011   -6.354419    0.277257   -3.029231
  25 C     6.0000    0    12.011   -6.979038    2.779691   -3.234667
  26 C     6.0000    0    12.011   -5.082354    4.640213   -2.955608
  27 C     6.0000    0    12.011   -2.654038    3.964961   -2.354597
  28 C     6.0000    0    12.011   -0.671345    4.769825    2.693994
  29 C     6.0000    0    12.011   -1.493478    7.231902    3.268567
  30 C     6.0000    0    12.011    0.212328    9.309388    3.036182
  31 C     6.0000    0    12.011    2.650651    8.920475    2.327685
  32 C     6.0000    0    12.011   -2.226092    2.674796    3.535182
  33 C     6.0000    0    12.011   -4.770331    3.136541    4.241097
  34 C     6.0000    0    12.011   -5.655111    5.684295    4.425074
  35 C     6.0000    0    12.011   -4.035935    7.645491    4.095956
  36 C     6.0000    0    12.011   -1.290034    0.184469    3.815620
  37 C     6.0000    0    12.011   -2.848559   -1.779152    4.501617
  38 C     6.0000    0    12.011   -5.430239   -1.342972    4.972135
  39 C     6.0000    0    12.011   -6.355679    1.082390    4.883347
  40 H     1.0000    0     1.008    9.722328    0.091429   -1.618711
  41 H     1.0000    0     1.008   10.953034   -4.259636   -2.639373
  42 H     1.0000    0     1.008    7.757816   -7.606210   -2.963922
  43 H     1.0000    0     1.008   -4.644513   -4.428033   -2.786688
  44 H     1.0000    0     1.008    7.336132    7.625177    0.839621
  45 H     1.0000    0     1.008    8.723300    3.440157   -0.566487
  46 H     1.0000    0     1.008    5.296150  -10.262200   -2.421079
  47 H     1.0000    0     1.008    2.076928  -13.571906   -2.667857
  48 H     1.0000    0     1.008   -2.506054  -12.402511   -2.666562
  49 H     1.0000    0     1.008   -3.746727   -7.952719   -2.421459
  50 H     1.0000    0     1.008   -7.774526   -1.190428   -3.330564
  51 H     1.0000    0     1.008   -8.915594    3.340000   -3.673650
  52 H     1.0000    0     1.008   -5.548362    6.630074   -3.236235
  53 H     1.0000    0     1.008   -1.213589    5.422463   -2.204384
  54 H     1.0000    0     1.008   -0.451528   11.194310    3.551792
  55 H     1.0000    0     1.008    4.014390   10.469383    2.318038
  56 H     1.0000    0     1.008   -7.619421    6.014430    4.965737
  57 H     1.0000    0     1.008   -4.657141    9.589135    4.407014
  58 H     1.0000    0     1.008    0.711763   -0.176283    3.527055
  59 H     1.0000    0     1.008   -2.068605   -3.679007    4.695848
  60 H     1.0000    0     1.008   -6.669085   -2.914082    5.475583
  61 H     1.0000    0     1.008   -8.327775    1.469940    5.355052

--------------------------------
INTERNAL COORDINATES (ANGSTROEM)
--------------------------------
 C      0   0   0     0.000000000000     0.00000000     0.00000000
 C      1   0   0     1.418964612621     0.00000000     0.00000000
 C      2   1   0     1.445419866987   119.37211988     0.00000000
 C      3   2   1     1.401247421926   119.73205680   356.59441568
 C      4   3   2     1.461371161064   118.46423046   342.81237112
 C      5   4   3     1.402492154725   118.04343678    28.42611104
 C      1   2   3     1.401368188403   118.85268662   188.76660185
 C      7   1   2     1.383532004416   120.79960928   358.51836432
 C      8   7   1     1.390100900898   120.30404086   359.17842668
 C      9   8   7     1.394944887419   121.06399331     1.09174916
 C     10   9   8     1.471245244937   121.67252766   180.69525933
 C     11  10   9     1.409548730208   119.94219052   188.82110056
 C      3   2   1     1.434963476301   119.95776377   174.18669519
 C     13   3   2     1.375609339891   118.69364231   187.57685617
 C     14  13   3     1.412211607134   121.86394212     5.84187571
 C     15  14  13     1.419619655565   119.50488195   354.50272411
 C      5   4   3     1.445879932611   123.23027576   207.90242839
 C     17   5   4     1.415209120076   117.53214603   204.64704341
 C     18  17   5     1.418721181854   119.29176136   344.42498795
 C     19  18  17     1.364197697380   120.65180131   359.22105859
 C     11  10   9     1.406603935387   121.32124047     9.48981422
 C     21  11  10     1.381620521526   121.66857073   179.61923356
 C     22  21  11     1.396851034629   119.58387777   359.73042157
 C     23  22  21     1.381599342588   119.62423736     0.00000000
 C     15  14  13     1.421030726242   120.84635378   172.92464705
 C     25  15  14     1.369181890032   120.87866547   184.94481721
 C     26  25  15     1.413688585850   119.59620310     1.74996494
 C     27  26  25     1.371161080923   120.53744035   356.65892828
 C     17   5   4     1.449804451343   124.74767261    23.22437418
 C     29  17   5     1.406840986113   118.17989160   203.31464777
 C     30  29  17     1.427771081676   119.93086845   346.33539830
 C     31  30  29     1.359340760347   120.48400248   358.22248260
 C     29  17   5     1.450561646291   124.02713631    24.63659894
 C     33  29  17     1.418419825800   119.17807616   196.06198613
 C     34  33  29     1.430515044296   119.40285293   351.94502576
 C     35  34  33     1.357041638586   120.35644367   355.55532078
 C     33  29  17     1.415643334589   123.03710265    19.43904593
 C     37  33  29     1.375392516559   121.40908004   183.15336717
 C     38  37  33     1.407722150319   120.31433515   359.27264174
 C     39  38  37     1.374506753395   119.52659598   356.28353847
 H      7   1   2     1.088401109913   120.35357811   179.19521246
 H      8   7   1     1.091600649868   119.91282576   179.72302304
 H      9   8   7     1.088565576231   118.66708125   180.12023281
 H     14  13   3     1.089026134361   120.74309700   181.63645139
 H     19  18  17     1.092029880417   118.76017929   182.13029438
 H     20  19  18     1.088265922556   119.11667967   185.94342067
 H     21  11  10     1.088830978981   119.79796201     0.64643800
 H     22  21  11     1.091675068698   119.95547416   180.34078866
 H     23  22  21     1.091757256934   120.41353344   180.56839205
 H     24  23  22     1.088883272542   118.59327906   181.10811717
 H     25  15  14     1.092415291799   118.44831074     3.70399823
 H     26  25  15     1.091812168400   120.40680446   179.71103417
 H     27  26  25     1.091627581489   119.81442727   176.13012020
 H     28  27  26     1.087297426241   119.28164973   178.19089122
 H     31  30  29     1.092143810756   118.57758666   181.96618371
 H     32  31  30     1.092080489572   120.99145594   185.87169191
 H     35  34  33     1.092186567302   118.69062826   179.84693143
 H     36  35  34     1.092261600518   120.71571651   185.75765923
 H     37  33  29     1.087147324763   119.31985983     4.65056947
 H     38  37  33     1.091632723152   119.59879516   179.80340332
 H     39  38  37     1.091771631915   120.06867008   178.64940351
 H     40  39  38     1.092448272812   120.51967382   183.72076872

---------------------------
INTERNAL COORDINATES (A.U.)
---------------------------
 C      0   0   0     0.000000000000     0.00000000     0.00000000
 C      1   0   0     2.681454511579     0.00000000     0.00000000
 C      2   1   0     2.731447697134   119.37211988     0.00000000
 C      3   2   1     2.647973873302   119.73205680   356.59441568
 C      4   3   2     2.761591274421   118.46423046   342.81237112
 C      5   4   3     2.650326077403   118.04343678    28.42611104
 C      1   2   3     2.648202088870   118.85268662   188.76660185
 C      7   1   2     2.614496585861   120.79960928   358.51836432
 C      8   7   1     2.626910001214   120.30404086   359.17842668
 C      9   8   7     2.636063809135   121.06399331     1.09174916
 C     10   9   8     2.780250588765   121.67252766   180.69525933
 C     11  10   9     2.663661072510   119.94219052   188.82110056
 C      3   2   1     2.711687982388   119.95776377   174.18669519
 C     13   3   2     2.599524919659   118.69364231   187.57685617
 C     14  13   3     2.668693180628   121.86394212     5.84187571
 C     15  14  13     2.682692363349   119.50488195   354.50272411
 C      5   4   3     2.732317095167   123.23027576   207.90242839
 C     17   5   4     2.674357659171   117.53214603   204.64704341
 C     18  17   5     2.680994494097   119.29176136   344.42498795
 C     19  18  17     2.577960040574   120.65180131   359.22105859
 C     11  10   9     2.658096216777   121.32124047     9.48981422
 C     21  11  10     2.610884406690   121.66857073   179.61923356
 C     22  21  11     2.639665905334   119.58387777   359.73042157
 C     23  22  21     2.610844384297   119.62423736     0.00000000
 C     15  14  13     2.685358900485   120.84635378   172.92464705
 C     25  15  14     2.587378799685   120.87866547   184.94481721
 C     26  25  15     2.671484265907   119.59620310     1.74996494
 C     27  26  25     2.591118928435   120.53744035   356.65892828
 C     17   5   4     2.739733360779   124.74767261    23.22437418
 C     29  17   5     2.658544177729   118.17989160   203.31464777
 C     30  29  17     2.698096326301   119.93086845   346.33539830
 C     31  30  29     2.568781759732   120.48400248   358.22248260
 C     29  17   5     2.741164251861   124.02713631    24.63659894
 C     33  29  17     2.680425013687   119.17807616   196.06198613
 C     34  33  29     2.703281664173   119.40285293   351.94502576
 C     35  34  33     2.564437049254   120.35644367   355.55532078
 C     33  29  17     2.675178205684   123.03710265    19.43904593
 C     37  33  29     2.599115182941   121.40908004   183.15336717
 C     38  37  33     2.660209336757   120.31433515   359.27264174
 C     39  38  37     2.597441333142   119.52659598   356.28353847
 H      7   1   2     2.056780021591   120.35357811   179.19521246
 H      8   7   1     2.062826275861   119.91282576   179.72302304
 H      9   8   7     2.057090817890   118.66708125   180.12023281
 H     14  13   3     2.057961146624   120.74309700   181.63645139
 H     19  18  17     2.063637404046   118.76017929   182.13029438
 H     20  19  18     2.056524554511   119.11667967   185.94342067
 H     21  11  10     2.057592356404   119.79796201     0.64643800
 H     22  21  11     2.062966907069   119.95547416   180.34078866
 H     23  22  21     2.063122220327   120.41353344   180.56839205
 H     24  23  22     2.057691176913   118.59327906   181.10811717
 H     25  15  14     2.064365726007   118.44831074     3.70399823
 H     26  25  15     2.063225987958   120.40680446   179.71103417
 H     27  26  25     2.062877169249   119.81442727   176.13012020
 H     28  27  26     2.054694361712   119.28164973   178.19089122
 H     31  30  29     2.063852701187   118.57758666   181.96618371
 H     32  31  30     2.063733041490   120.99145594   185.87169191
 H     35  34  33     2.063933499349   118.69062826   179.84693143
 H     36  35  34     2.064075291578   120.71571651   185.75765923
 H     37  33  29     2.054410711027   119.31985983     4.65056947
 H     38  37  33     2.062886885583   119.59879516   179.80340332
 H     39  38  37     2.063149385104   120.06867008   178.64940351
 H     40  39  38     2.064428051089   120.51967382   183.72076872

---------------------
BASIS SET INFORMATION
---------------------
There are 2 groups of distinct atoms

 Group   1 Type C   : 15s8p3d2f1g contracted to 7s4p3d2f1g pattern {8211111/5111/111/11/1}
 Group   2 Type H   : 7s3p2d1f contracted to 4s3p2d1f pattern {4111/111/11/1}

Atom   0C    basis set group =>   1
Atom   1C    basis set group =>   1
Atom   2C    basis set group =>   1
Atom   3C    basis set group =>   1
Atom   4C    basis set group =>   1
Atom   5C    basis set group =>   1
Atom   6C    basis set group =>   1
Atom   7C    basis set group =>   1
Atom   8C    basis set group =>   1
Atom   9C    basis set group =>   1
Atom  10C    basis set group =>   1
Atom  11C    basis set group =>   1
Atom  12C    basis set group =>   1
Atom  13C    basis set group =>   1
Atom  14C    basis set group =>   1
Atom  15C    basis set group =>   1
Atom  16C    basis set group =>   1
Atom  17C    basis set group =>   1
Atom  18C    basis set group =>   1
Atom  19C    basis set group =>   1
Atom  20C    basis set group =>   1
Atom  21C    basis set group =>   1
Atom  22C    basis set group =>   1
Atom  23C    basis set group =>   1
Atom  24C    basis set group =>   1
Atom  25C    basis set group =>   1
Atom  26C    basis set group =>   1
Atom  27C    basis set group =>   1
Atom  28C    basis set group =>   1
Atom  29C    basis set group =>   1
Atom  30C    basis set group =>   1
Atom  31C    basis set group =>   1
Atom  32C    basis set group =>   1
Atom  33C    basis set group =>   1
Atom  34C    basis set group =>   1
Atom  35C    basis set group =>   1
Atom  36C    basis set group =>   1
Atom  37C    basis set group =>   1
Atom  38C    basis set group =>   1
Atom  39C    basis set group =>   1
Atom  40H    basis set group =>   2
Atom  41H    basis set group =>   2
Atom  42H    basis set group =>   2
Atom  43H    basis set group =>   2
Atom  44H    basis set group =>   2
Atom  45H    basis set group =>   2
Atom  46H    basis set group =>   2
Atom  47H    basis set group =>   2
Atom  48H    basis set group =>   2
Atom  49H    basis set group =>   2
Atom  50H    basis set group =>   2
Atom  51H    basis set group =>   2
Atom  52H    basis set group =>   2
Atom  53H    basis set group =>   2
Atom  54H    basis set group =>   2
Atom  55H    basis set group =>   2
Atom  56H    basis set group =>   2
Atom  57H    basis set group =>   2
Atom  58H    basis set group =>   2
Atom  59H    basis set group =>   2
Atom  60H    basis set group =>   2
Atom  61H    basis set group =>   2
---------------------------------
AUXILIARY/C BASIS SET INFORMATION
---------------------------------
There are 2 groups of distinct atoms

 Group   1 Type C   : 9s8p7d5f3g1h contracted to 9s8p7d5f3g1h pattern {111111111/11111111/1111111/11111/111/1}
 Group   2 Type H   : 6s4p3d2f1g contracted to 6s4p3d2f1g pattern {111111/1111/111/11/1}

Atom   0C    basis set group =>   1
Atom   1C    basis set group =>   1
Atom   2C    basis set group =>   1
Atom   3C    basis set group =>   1
Atom   4C    basis set group =>   1
Atom   5C    basis set group =>   1
Atom   6C    basis set group =>   1
Atom   7C    basis set group =>   1
Atom   8C    basis set group =>   1
Atom   9C    basis set group =>   1
Atom  10C    basis set group =>   1
Atom  11C    basis set group =>   1
Atom  12C    basis set group =>   1
Atom  13C    basis set group =>   1
Atom  14C    basis set group =>   1
Atom  15C    basis set group =>   1
Atom  16C    basis set group =>   1
Atom  17C    basis set group =>   1
Atom  18C    basis set group =>   1
Atom  19C    basis set group =>   1
Atom  20C    basis set group =>   1
Atom  21C    basis set group =>   1
Atom  22C    basis set group =>   1
Atom  23C    basis set group =>   1
Atom  24C    basis set group =>   1
Atom  25C    basis set group =>   1
Atom  26C    basis set group =>   1
Atom  27C    basis set group =>   1
Atom  28C    basis set group =>   1
Atom  29C    basis set group =>   1
Atom  30C    basis set group =>   1
Atom  31C    basis set group =>   1
Atom  32C    basis set group =>   1
Atom  33C    basis set group =>   1
Atom  34C    basis set group =>   1
Atom  35C    basis set group =>   1
Atom  36C    basis set group =>   1
Atom  37C    basis set group =>   1
Atom  38C    basis set group =>   1
Atom  39C    basis set group =>   1
Atom  40H    basis set group =>   2
Atom  41H    basis set group =>   2
Atom  42H    basis set group =>   2
Atom  43H    basis set group =>   2
Atom  44H    basis set group =>   2
Atom  45H    basis set group =>   2
Atom  46H    basis set group =>   2
Atom  47H    basis set group =>   2
Atom  48H    basis set group =>   2
Atom  49H    basis set group =>   2
Atom  50H    basis set group =>   2
Atom  51H    basis set group =>   2
Atom  52H    basis set group =>   2
Atom  53H    basis set group =>   2
Atom  54H    basis set group =>   2
Atom  55H    basis set group =>   2
Atom  56H    basis set group =>   2
Atom  57H    basis set group =>   2
Atom  58H    basis set group =>   2
Atom  59H    basis set group =>   2
Atom  60H    basis set group =>   2
Atom  61H    basis set group =>   2
----------------------------------
AUXILIARY/JK BASIS SET INFORMATION
----------------------------------
There are 2 groups of distinct atoms

 Group   1 Type C   : 9s8p7d5f3g1h contracted to 9s8p7d5f3g1h pattern {111111111/11111111/1111111/11111/111/1}
 Group   2 Type H   : 6s4p3d2f1g contracted to 6s4p3d2f1g pattern {111111/1111/111/11/1}

Atom   0C    basis set group =>   1
Atom   1C    basis set group =>   1
Atom   2C    basis set group =>   1
Atom   3C    basis set group =>   1
Atom   4C    basis set group =>   1
Atom   5C    basis set group =>   1
Atom   6C    basis set group =>   1
Atom   7C    basis set group =>   1
Atom   8C    basis set group =>   1
Atom   9C    basis set group =>   1
Atom  10C    basis set group =>   1
Atom  11C    basis set group =>   1
Atom  12C    basis set group =>   1
Atom  13C    basis set group =>   1
Atom  14C    basis set group =>   1
Atom  15C    basis set group =>   1
Atom  16C    basis set group =>   1
Atom  17C    basis set group =>   1
Atom  18C    basis set group =>   1
Atom  19C    basis set group =>   1
Atom  20C    basis set group =>   1
Atom  21C    basis set group =>   1
Atom  22C    basis set group =>   1
Atom  23C    basis set group =>   1
Atom  24C    basis set group =>   1
Atom  25C    basis set group =>   1
Atom  26C    basis set group =>   1
Atom  27C    basis set group =>   1
Atom  28C    basis set group =>   1
Atom  29C    basis set group =>   1
Atom  30C    basis set group =>   1
Atom  31C    basis set group =>   1
Atom  32C    basis set group =>   1
Atom  33C    basis set group =>   1
Atom  34C    basis set group =>   1
Atom  35C    basis set group =>   1
Atom  36C    basis set group =>   1
Atom  37C    basis set group =>   1
Atom  38C    basis set group =>   1
Atom  39C    basis set group =>   1
Atom  40H    basis set group =>   2
Atom  41H    basis set group =>   2
Atom  42H    basis set group =>   2
Atom  43H    basis set group =>   2
Atom  44H    basis set group =>   2
Atom  45H    basis set group =>   2
Atom  46H    basis set group =>   2
Atom  47H    basis set group =>   2
Atom  48H    basis set group =>   2
Atom  49H    basis set group =>   2
Atom  50H    basis set group =>   2
Atom  51H    basis set group =>   2
Atom  52H    basis set group =>   2
Atom  53H    basis set group =>   2
Atom  54H    basis set group =>   2
Atom  55H    basis set group =>   2
Atom  56H    basis set group =>   2
Atom  57H    basis set group =>   2
Atom  58H    basis set group =>   2
Atom  59H    basis set group =>   2
Atom  60H    basis set group =>   2
Atom  61H    basis set group =>   2


           ************************************************************
           *        Program running with 104 parallel MPI-processes   *
           *              working on a common directory               *
           ************************************************************
------------------------------------------------------------------------------
                             ORCA STARTUP CALCULATIONS
                           -- RI-GTO INTEGRALS CHOSEN --
------------------------------------------------------------------------------
------------------------------------------------------------------------------
                   ___                                                        
                  /   \      - P O W E R E D   B Y -                         
                 /     \                                                     
                 |  |  |   _    _      __       _____    __    __             
                 |  |  |  | |  | |    /  \     |  _  \  |  |  /  |          
                  \  \/   | |  | |   /    \    | | | |  |  | /  /          
                 / \  \   | |__| |  /  /\  \   | |_| |  |  |/  /          
                |  |  |   |  __  | /  /__\  \  |    /   |      \           
                |  |  |   | |  | | |   __   |  |    \   |  |\   \          
                \     /   | |  | | |  |  |  |  | |\  \  |  | \   \       
                 \___/    |_|  |_| |__|  |__|  |_| \__\ |__|  \__/        
                                                                              
                      - O R C A' S   B I G   F R I E N D -                    
                                      &                                       
                       - I N T E G R A L  F E E D E R -                       
                                                                              
 v1 FN, 2020, v2 2021, v3 2022-2024                                           
------------------------------------------------------------------------------


----------------------
SHARK INTEGRAL PACKAGE
----------------------

Number of atoms                             ...     62
Number of basis functions                   ...   2940
Number of shells                            ...    900
Maximum angular momentum                    ...      4
Integral batch strategy                     ... SHARK/LIBINT Hybrid
RI-J (if used) integral strategy            ... SPLIT-RIJ (Revised 2003 algorithm where possible)
Printlevel                                  ...      1
Contraction scheme used                     ... SEGMENTED contraction
Prescreening option                         ... SCHWARTZ
   Thresh                                   ... 1.000e-10
   Tcut                                     ... 1.000e-11
   Tpresel                                  ... 1.000e-11 
Coulomb Range Separation                    ... NOT USED
Exchange Range Separation                   ... NOT USED
Multipole approximations                    ... NOT USED
Finite Nucleus Model                        ... NOT USED
CABS basis                                  ... NOT available
Auxiliary Coulomb fitting basis             ... NOT available
Auxiliary J/K fitting basis                 ... AVAILABLE
   # of basis functions in Aux-JK           ...   6872
   # of shells in Aux-JK                    ...   1672
   Maximum angular momentum in Aux-JK       ...      5
Auxiliary Correlation fitting basis         ... AVAILABLE
   # of basis functions in Aux-C            ...   6872
   # of shells in Aux-C                     ...   1672
   Maximum angular momentum in Aux-C        ...      5
Auxiliary 'external' fitting basis          ... NOT available

Checking pre-screening integrals            ... done (  0.0 sec) Dimension = 900
Check shell pair data                       ... done (  0.0 sec)
Shell pair information
Shell pair cut-off parameter TPreSel        ...   1.0e-11
Total number of shell pairs                 ...    405450
Shell pairs after pre-screening             ...    211502
Total number of primitive shell pairs       ...   1047873
Primitive shell pairs kept                  ...    360395
          la=0 lb=0:  32184 shell pairs
          la=1 lb=0:  48729 shell pairs
          la=1 lb=1:  17377 shell pairs
          la=2 lb=0:  28390 shell pairs
          la=2 lb=1:  22043 shell pairs
          la=2 lb=2:   6661 shell pairs
          la=3 lb=0:  16618 shell pairs
          la=3 lb=1:  13005 shell pairs
          la=3 lb=2:   7522 shell pairs
          la=3 lb=3:   2195 shell pairs
          la=4 lb=0:   6491 shell pairs
          la=4 lb=1:   5203 shell pairs
          la=4 lb=2:   2993 shell pairs
          la=4 lb=3:   1721 shell pairs
          la=4 lb=4:    370 shell pairs

Calculating one electron integrals          ... done (  1.4 sec)
Calculating RI/JK V-Matrix + Cholesky decomp... done (  2.6 sec)
Calculating RI/C V-Matrix + Cholesky decomp.... done (  2.3 sec)
Calculating Nuclear repulsion               ... done (  0.0 sec) ENN=   4262.497205993189 Eh

Diagonalization of the overlap matrix:
Smallest eigenvalue                        ... 1.334e-07
Time for diagonalization                   ...    1.240 sec
Threshold for overlap eigenvalues          ... 1.000e-07
Number of eigenvalues below threshold      ... 0

IMPORTANT:
Smallest eigenvalue of S below the DiffSThresh (1.000e-06) while
Thresh>1e-12 and/or TCut>1e-13! In order to avoid SCF convergence issues,
Thresh will be set to at least 1e-12 and TCut to at least 1e-13.
This can be turned off by adding %SCF DiffSThresh -1 END to the input.

Time for construction of square roots      ...    1.073 sec
Total time needed                          ...    2.424 sec

-------------------
DFT GRID GENERATION
-------------------

General Integration Accuracy     IntAcc      ... 4.959
Radial Grid Type                 RadialGrid  ... OptM3 with GC (2021)
Angular Grid (max. ang.)         AngularGrid ... 6 (Lebedev-590)
Angular grid pruning method      GridPruning ... 4 (adaptive)
Weight generation scheme         WeightScheme... mBecke (2022)
Basis function cutoff            BFCut       ... 1.0000e-10
Integration weight cutoff        WCut        ... 1.0000e-14
Partially contracted basis set               ... off
Rotationally invariant grid construction     ... off
Angular grids for H and He will be reduced by one unit
Diffuse basis detected: some atoms will have their outermost
                        angular grid increased by 1.

Total number of grid points                  ...   759265
Total number of batches                      ...    11894
Average number of points per batch           ...       63
Average number of grid points per atom       ...    12246
Initializing property integral containers    ... done (  0.1 sec)

SHARK setup successfully completed in  20.8 seconds

Maximum memory used throughout the entire STARTUP-calculation: 414.1 MB


           ************************************************************
           *        Program running with 104 parallel MPI-processes   *
           *              working on a common directory               *
           ************************************************************
-------------------------------------------------------------------------------
                                 ORCA GUESS
                   Start orbitals & Density for SCF / CASSCF
-------------------------------------------------------------------------------

------------
SCF SETTINGS
------------
Hamiltonian:
 Density Functional     Method          .... DFT(GTOs)
 Exchange Functional    Exchange        .... PBE
   PBE kappa parameter   XKappa         ....  0.804000
   PBE mue parameter    XMuePBE         ....  0.219520
 Correlation Functional Correlation     .... P86
 LDA part of GGA corr.  LDAOpt          .... VWN-5
 Gradients option       PostSCFGGA      .... off
 Hybrid DFT is turned on
   Fraction HF Exchange ScalHFX         ....  0.690000
   Scaling of DF-GGA-X  ScalDFX         ....  0.310000
   Scaling of DF-GGA-C  ScalDFC         ....  0.403800
   Scaling of DF-LDA-C  ScalLDAC        ....  0.403800
   Perturbative correction              ....  1.000000
 RI-approximation to the Coulomb term is turned on
   Number of AuxJK basis functions      .... 6872
   RI-JK (J+K treated both via RI)      .... on


General Settings:
 Integral files         IntName         .... compas3D_hc_c40h22_0pent_1_qz_riri
 Hartree-Fock type      HFTyp           .... RHF
 Total Charge           Charge          ....    0
 Multiplicity           Mult            ....    1
 Number of Electrons    NEL             ....  262
 Basis Dimension        Dim             .... 2940
 Nuclear Repulsion      ENuc            ....   4262.4972059932 Eh

Convergence Acceleration:
 AO-DIIS                CNVDIIS         .... on
   Start iteration      DIISMaxIt       ....    12
   Startup error        DIISStart       ....  0.200000
   # of expansion vecs  DIISMaxEq       ....     5
   Bias factor          DIISBfac        ....   1.050
   Max. coefficient     DIISMaxC        ....  10.000
 MO-DIIS                CNVKDIIS        .... off
 Trust-Rad. Augm. Hess. CNVTRAH         .... auto
   Auto Start mean grad. ratio tolernc. ....  1.125000
   Auto Start start iteration           ....    50
   Auto Start num. interpolation iter.  ....    10
   Max. Number of Micro iterations      ....    24
   Max. Number of Macro iterations      .... Maxiter - #DIIS iter
   Number of Davidson start vectors     ....     2
   Converg. threshold    (grad. norm)   ....   5.000e-05
   Grad. Scal. Fac. for Micro threshold ....   0.100
   Minimum threshold for Micro iter.    ....   1.000e-02
   NR start threshold (gradient norm)   ....   1.000e-04
   Initial trust radius                 ....   0.400
   Minimum AH scaling param. (alpha)    ....   1.000
   Maximum AH scaling param. (alpha)    .... 1000.000
   Quad. conv. algorithm                .... NR
   White noise on init. David. guess    .... on
   Maximum white noise                  ....   0.010
   Pseudo random numbers                .... off
   Inactive MOs                         .... canonical
   Orbital update algorithm             .... Taylor
   Preconditioner                       .... Diag
   Full preconditioner red. dimension   ....   250
 SOSCF                  CNVSOSCF        .... on
   Start iteration      SOSCFMaxIt      ....   150
   Startup grad/error   SOSCFStart      ....  0.003300
   Hessian update       SOSCFHessUp     .... L-BFGS
 Level Shifting         CNVShift        .... on
   Level shift para.    LevelShift      ....    0.2500
   Turn off err/grad.   ShiftErr        ....    0.0010
 Zerner damping         CNVZerner       .... off
 Static damping         CNVDamp         .... on
   Fraction old density DampFac         ....    0.7000
   Max. Damping (<1)    DampMax         ....    0.9800
   Min. Damping (>=0)   DampMin         ....    0.0000
   Turn off err/grad.   DampErr         ....    0.1000

SCF Procedure:
 Maximum # iterations   MaxIter         ....   125
 SCF integral mode      SCFMode         .... Direct
   Integral package                     .... SHARK and LIBINT hybrid scheme
 Reset frequency        DirectResetFreq ....    20
 Integral Threshold     Thresh          ....  1.000e-12 Eh
 Primitive CutOff       TCut            ....  1.000e-13 Eh

Convergence Tolerance:
 Convergence Check Mode ConvCheckMode   .... Total+1el-Energy
 Convergence forced     ConvForced      .... 0
 Energy Change          TolE            ....  1.000e-06 Eh
 1-El. energy change                    ....  1.000e-03 Eh
 Orbital Gradient       TolG            ....  5.000e-05
 Orbital Rotation angle TolX            ....  5.000e-05
 DIIS Error             TolErr          ....  1.000e-06

------------------------------
INITIAL GUESS: MODEL POTENTIAL
------------------------------
Loading Hartree-Fock densities                     ... done
Calculating cut-offs                               ... done
Initializing the effective Hamiltonian             ... done
Setting up the integral package (SHARK)            ... done
Starting the Coulomb interaction                   ... done (   0.9 sec)
Making the grid                                    ... done (   0.6 sec)
Mapping shells                                     ... done
Starting the XC term evaluation                    ... done (   0.3 sec)
  promolecular density results
     # of electrons  =    261.990473748
     EX              =   -211.232671027
     EC              =      0.316727098
     EX+EC           =   -210.915943929
Transforming the Hamiltonian                       ... done (   0.6 sec)
Diagonalizing the Hamiltonian                      ... done (   0.8 sec)
Back transforming the eigenvectors                 ... done (   0.4 sec)
Now organizing SCF variables                       ... done
                      ------------------
                      INITIAL GUESS DONE (   4.7 sec)
                      ------------------
             **** ENERGY FILE WAS UPDATED (compas3D_hc_c40h22_0pent_1_qz_riri.en.tmp) ****
Finished Guess after  23.8 sec
Maximum memory used throughout the entire GUESS-calculation: 479.3 MB


           ************************************************************
           *        Program running with 104 parallel MPI-processes   *
           *              working on a common directory               *
           ************************************************************

-------------------------------------------------------------------------------------------
                                      ORCA LEAN-SCF
                              memory conserving SCF solver
-------------------------------------------------------------------------------------------


Warning (ORCA_SCF): Not enough memory available!
                    Memory available for SCF calculation:       1024.0 MB
                    Memory needed (estimated)           :       1516.3 MB


----------------------------------------D-I-I-S--------------------------------------------
Iteration    Energy (Eh)           Delta-E    RMSDP     MaxDP     DIISErr   Damp  Time(sec)
-------------------------------------------------------------------------------------------
    1    -1530.9687221507374488     0.00e+00  8.54e-04  3.07e-01  1.49e-01  0.700  58.7
    2    -1530.6961150807592276     2.73e-01  1.30e-03  5.53e-01  1.31e-01  0.700  61.5
                               ***Turning on AO-DIIS***
    3    -1530.8688244839604522    -1.73e-01  4.23e-04  1.48e-01  7.65e-02  0.700  60.4
    4    -1531.2134257659372452    -3.45e-01  1.27e-03  5.66e-01  4.11e-02  0.000  58.9
    5    -1531.7536546583742165    -5.40e-01  5.48e-04  2.67e-01  3.27e-02  0.000  59.5
    6    -1531.7756561732576301    -2.20e-02  1.42e-04  4.89e-02  1.58e-02  0.000  60.0
    7    -1531.7813989068181399    -5.74e-03  4.80e-05  1.47e-02  5.26e-03  0.000  59.7
                              *** Initializing SOSCF ***
---------------------------------------S-O-S-C-F--------------------------------------
Iteration    Energy (Eh)           Delta-E    RMSDP     MaxDP     MaxGrad    Time(sec)
--------------------------------------------------------------------------------------
    8    -1531.7821428180186558    -7.44e-04  8.49e-05  4.02e-02  1.37e-03    64.1
    9    -1531.7822076990314599    -6.49e-05  2.56e-05  1.01e-02  1.12e-04    57.1
   10    -1531.7822146930193412    -6.99e-06  4.47e-05  2.09e-02  1.18e-04    56.7
   11    -1531.7822160170744610    -1.32e-06  1.20e-05  5.50e-03  7.48e-05    56.2
   12    -1531.7822165920624684    -5.75e-07  4.55e-06  1.99e-03  1.83e-05    56.4
                 **** Energy Check signals convergence ****

               *****************************************************
               *                     SUCCESS                       *
               *           SCF CONVERGED AFTER  12 CYCLES          *
               *****************************************************

             **** ENERGY FILE WAS UPDATED (compas3D_hc_c40h22_0pent_1_qz_riri.en.tmp) ****

----------------
TOTAL SCF ENERGY
----------------

Total Energy       :      -1531.78221659206247 Eh          -41681.91318 eV

Components:
Nuclear Repulsion  :       4262.49720599318880 Eh          115988.44571 eV
Electronic Energy  :      -5794.27942258525127 Eh         -157670.35889 eV
One Electron Energy:     -10559.05343893882673 Eh         -287326.45147 eV
Two Electron Energy:       4764.77401635357546 Eh          129656.09257 eV

Virial components:
Potential Energy   :      -3059.07305047590444 Eh          -83241.60963 eV
Kinetic Energy     :       1527.29083388384197 Eh           41559.69644 eV
Virial Ratio       :          2.00294075143291

DFT components:
N(Alpha)           :      131.000021154361 electrons
N(Beta)            :      131.000021154361 electrons
N(Total)           :      262.000042308722 electrons
E(X)               :      -66.554313152540 Eh       
E(C)               :       -3.914380531174 Eh       
E(XC)              :      -70.468693683714 Eh       

---------------
SCF CONVERGENCE
---------------

  Last Energy change         ...    5.7499e-07  Tolerance :   1.0000e-06
  Last MAX-Density change    ...    1.9908e-03  Tolerance :   1.0000e-05
  Last RMS-Density change    ...    4.5504e-06  Tolerance :   1.0000e-06
  Last DIIS Error            ...    1.3741e-03  Tolerance :   1.0000e-06
  Last Orbital Gradient      ...    1.8308e-05  Tolerance :   5.0000e-05
  Last Orbital Rotation      ...    3.8547e-05  Tolerance :   5.0000e-05


----------------
ORBITAL ENERGIES
----------------

  NO   OCC          E(Eh)            E(eV) 
   0   2.0000     -10.842486      -295.0390 
   1   2.0000     -10.841734      -295.0186 
   2   2.0000     -10.840382      -294.9818 
   3   2.0000     -10.839433      -294.9560 
   4   2.0000     -10.839018      -294.9447 
   5   2.0000     -10.838346      -294.9264 
   6   2.0000     -10.838123      -294.9203 
   7   2.0000     -10.837866      -294.9133 
   8   2.0000     -10.837477      -294.9027 
   9   2.0000     -10.837101      -294.8925 
  10   2.0000     -10.836116      -294.8657 
  11   2.0000     -10.835552      -294.8504 
  12   2.0000     -10.835275      -294.8428 
  13   2.0000     -10.833546      -294.7958 
  14   2.0000     -10.830450      -294.7115 
  15   2.0000     -10.830390      -294.7099 
  16   2.0000     -10.828299      -294.6530 
  17   2.0000     -10.828205      -294.6504 
  18   2.0000     -10.827719      -294.6372 
  19   2.0000     -10.827460      -294.6302 
  20   2.0000     -10.826291      -294.5984 
  21   2.0000     -10.826206      -294.5960 
  22   2.0000     -10.826137      -294.5942 
  23   2.0000     -10.825710      -294.5825 
  24   2.0000     -10.825296      -294.5713 
  25   2.0000     -10.825014      -294.5636 
  26   2.0000     -10.824490      -294.5493 
  27   2.0000     -10.824257      -294.5430 
  28   2.0000     -10.824007      -294.5362 
  29   2.0000     -10.823858      -294.5322 
  30   2.0000     -10.822481      -294.4947 
  31   2.0000     -10.822107      -294.4845 
  32   2.0000     -10.820309      -294.4356 
  33   2.0000     -10.819338      -294.4091 
  34   2.0000     -10.819085      -294.4023 
  35   2.0000     -10.818161      -294.3771 
  36   2.0000     -10.817582      -294.3614 
  37   2.0000     -10.816313      -294.3269 
  38   2.0000     -10.816120      -294.3216 
  39   2.0000     -10.815007      -294.2913 
  40   2.0000      -1.099800       -29.9271 
  41   2.0000      -1.080125       -29.3917 
  42   2.0000      -1.058911       -28.8144 
  43   2.0000      -1.057758       -28.7831 
  44   2.0000      -1.042716       -28.3737 
  45   2.0000      -1.020415       -27.7669 
  46   2.0000      -1.010972       -27.5099 
  47   2.0000      -0.988460       -26.8974 
  48   2.0000      -0.975494       -26.5445 
  49   2.0000      -0.961391       -26.1608 
  50   2.0000      -0.953501       -25.9461 
  51   2.0000      -0.944133       -25.6912 
  52   2.0000      -0.929190       -25.2845 
  53   2.0000      -0.917825       -24.9753 
  54   2.0000      -0.913632       -24.8612 
  55   2.0000      -0.900134       -24.4939 
  56   2.0000      -0.889125       -24.1943 
  57   2.0000      -0.884607       -24.0714 
  58   2.0000      -0.876916       -23.8621 
  59   2.0000      -0.863353       -23.4930 
  60   2.0000      -0.797952       -21.7134 
  61   2.0000      -0.788837       -21.4653 
  62   2.0000      -0.785246       -21.3676 
  63   2.0000      -0.771305       -20.9883 
  64   2.0000      -0.766627       -20.8610 
  65   2.0000      -0.763188       -20.7674 
  66   2.0000      -0.748069       -20.3560 
  67   2.0000      -0.736040       -20.0287 
  68   2.0000      -0.730072       -19.8663 
  69   2.0000      -0.709698       -19.3119 
  70   2.0000      -0.703228       -19.1358 
  71   2.0000      -0.696903       -18.9637 
  72   2.0000      -0.670349       -18.2411 
  73   2.0000      -0.659521       -17.9465 
  74   2.0000      -0.642825       -17.4922 
  75   2.0000      -0.634074       -17.2540 
  76   2.0000      -0.630155       -17.1474 
  77   2.0000      -0.624606       -16.9964 
  78   2.0000      -0.618124       -16.8200 
  79   2.0000      -0.602291       -16.3892 
  80   2.0000      -0.593357       -16.1461 
  81   2.0000      -0.591321       -16.0906 
  82   2.0000      -0.586261       -15.9530 
  83   2.0000      -0.574375       -15.6295 
  84   2.0000      -0.567078       -15.4310 
  85   2.0000      -0.558415       -15.1952 
  86   2.0000      -0.553520       -15.0620 
  87   2.0000      -0.550831       -14.9889 
  88   2.0000      -0.541610       -14.7380 
  89   2.0000      -0.536006       -14.5855 
  90   2.0000      -0.534625       -14.5479 
  91   2.0000      -0.529319       -14.4035 
  92   2.0000      -0.528816       -14.3898 
  93   2.0000      -0.527264       -14.3476 
  94   2.0000      -0.519695       -14.1416 
  95   2.0000      -0.517387       -14.0788 
  96   2.0000      -0.517116       -14.0714 
  97   2.0000      -0.511484       -13.9182 
  98   2.0000      -0.508525       -13.8377 
  99   2.0000      -0.501649       -13.6506 
 100   2.0000      -0.493606       -13.4317 
 101   2.0000      -0.483499       -13.1567 
 102   2.0000      -0.479580       -13.0500 
 103   2.0000      -0.475005       -12.9255 
 104   2.0000      -0.468131       -12.7385 
 105   2.0000      -0.465299       -12.6614 
 106   2.0000      -0.461323       -12.5532 
 107   2.0000      -0.457464       -12.4482 
 108   2.0000      -0.453487       -12.3400 
 109   2.0000      -0.446662       -12.1543 
 110   2.0000      -0.442596       -12.0436 
 111   2.0000      -0.435012       -11.8373 
 112   2.0000      -0.430943       -11.7266 
 113   2.0000      -0.422972       -11.5097 
 114   2.0000      -0.421826       -11.4785 
 115   2.0000      -0.414107       -11.2684 
 116   2.0000      -0.407144       -11.0789 
 117   2.0000      -0.401157       -10.9160 
 118   2.0000      -0.385628       -10.4935 
 119   2.0000      -0.368474       -10.0267 
 120   2.0000      -0.356666        -9.7054 
 121   2.0000      -0.352479        -9.5914 
 122   2.0000      -0.340052        -9.2533 
 123   2.0000      -0.320777        -8.7288 
 124   2.0000      -0.306933        -8.3521 
 125   2.0000      -0.300896        -8.1878 
 126   2.0000      -0.284580        -7.7438 
 127   2.0000      -0.267108        -7.2684 
 128   2.0000      -0.255314        -6.9474 
 129   2.0000      -0.251618        -6.8469 
 130   2.0000      -0.233838        -6.3631 
 131   0.0000      -0.004611        -0.1255 
 132   0.0000       0.003482         0.0947 
 133   0.0000       0.013952         0.3796 
 134   0.0000       0.028509         0.7758 
 135   0.0000       0.039488         1.0745 
 136   0.0000       0.057163         1.5555 
 137   0.0000       0.068072         1.8523 
 138   0.0000       0.071305         1.9403 
 139   0.0000       0.072925         1.9844 
 140   0.0000       0.075180         2.0457 
 141   0.0000       0.078253         2.1294 
*Only the first 10 virtual orbitals were printed.
-------
TIMINGS
-------

Total SCF time: 0 days 0 hours 12 min 11 sec 

Total time                  ....     731.578 sec
Sum of individual times     ....     731.017 sec  ( 99.9%)

SCF preparation             ....      18.108 sec  (  2.5%)
Fock matrix formation       ....     648.016 sec  ( 88.6%)
  Startup                   ....       4.722 sec  (  0.7% of F)
  RI-JK                     ....     599.611 sec  ( 92.5% of F)
  XC integration            ....      30.470 sec  (  4.7% of F)
    XC Preparation          ....       0.000 sec  (  0.0% of XC)
    Basis function eval.    ....       2.136 sec  (  7.0% of XC)
    Density eval.           ....       7.745 sec  ( 25.4% of XC)
    XC-Functional eval.     ....       0.050 sec  (  0.2% of XC)
    XC-Potential eval.      ....       9.705 sec  ( 31.9% of XC)
Diagonalization             ....       0.000 sec  (  0.0%)
Density matrix formation    ....      10.090 sec  (  1.4%)
Total Energy calculation    ....       3.848 sec  (  0.5%)
Population analysis         ....       0.000 sec  (  0.0%)
Orbital Transformation      ....       5.964 sec  (  0.8%)
Orbital Orthonormalization  ....       0.000 sec  (  0.0%)
DIIS solution               ....      34.324 sec  (  4.7%)
SOSCF solution              ....      10.291 sec  (  1.4%)
Finished LeanSCF after 732.8 sec

Maximum memory used throughout the entire LEANSCF-calculation: 1609.3 MB


           ************************************************************
           *        Program running with 104 parallel MPI-processes   *
           *              working on a common directory               *
           ************************************************************

------------------------------------------------------------------------------
                                ORCA  MP2 
------------------------------------------------------------------------------


-------------
RI-MP2 ENERGY
-------------
Dimension of the orbital basis            ... 2940
Dimension of the AuxC basis               ... 6872
Memory devoted to MP2                     ... 4096 MB   
Data format for matrix containers         ... DOUBLE
Compression type for matrix containers    ... UNCOMPRESSED
Scaling for aa/bb pairs                   ...   5.710e-02
Scaling for ab pairs                      ...   5.979e-01
Overall scaling of the MP2 energy         ...   1.000e+00

-----------------------
SHARK RI TRANSFORMATION
-----------------------

Number of basis functions                ...   2940
Number of aux functions                  ...   6872
Number of operators                      ...      1
Generation of IJK                        ... NO
Generation of IAK                        ... YES
Generation of ABK                        ... NO
Orbital Range Operator  0:    0- 130 to  131-2939

Aux basis identifier                     ...   AUXC
Contraction scheme used                  ... SEGMENTED
Do orthogonalization                     ... YES
All operator combinations                ... NO
Transpose (ia|K)                         ... NO
Integral generator used                  ... LIBINT
Starting integral generation + trafo... 
Half trafo (segmented) done. Total time = 22.2 sec. integrals=  4.3 sec trafo= 16.7 sec
Integral generation and half transformation done ( 22.2 sec)

Reading or making V^(-1/2)          ... done (  0.8 sec)
Sorting IAK integrals               ... done ( 27.0 sec)

SHARK RI integral transformation done. Total time = 50.3 sec.

Opening buffers                              ... done

Starting loop over batches of integrals:

Operator 0  - window                       ... (  0-130)x(131-2939)
Operator 0  - Memory available             ...  4096 MB
Operator 0  - Memory needed per MO         ... 147.3 MB
Operator 0  - Number of orbitals per batch ... 2
Operator 0  - Number of batches            ... 1

OPERATOR  0   PASS   0:  MOs     0 ...    1 +    2 ...    3 +    4 ...    5 +    6 ...    7
                            +    8 ...    9 +   10 ...   11 +   12 ...   13 +   14 ...   15
                            +   16 ...   17 +   18 ...   19 +   20 ...   21 +   22 ...   23
                            +   24 ...   25 +   26 ...   27 +   28 ...   29 +   30 ...   31
                            +   32 ...   33 +   34 ...   35 +   36 ...   37 +   38 ...   39
                            +   40 ...   41 +   42 ...   43 +   44 ...   45 +   46 ...   47
                            +   48 ...   49 +   50 ...   51 +   52 ...   53 +   54 ...   55
                            +   56 ...   57 +   58 ...   59 +   60 ...   61 +   62 ...   63
                            +   64 ...   65 +   66 ...   67 +   68 ...   69 +   70 ...   71
                            +   72 ...   73 +   74 ...   75 +   76 ...   77 +   78 ...   79
                            +   80 ...   81 +   82 ...   83 +   84 ...   85 +   86 ...   87
                            +   88 ...   89 +   90 ...   91 +   92 ...   93 +   94 ...   95
                            +   96 ...   97 +   98 ...   99 +  100 ...  101 +  102 ...  103
                            +  104 ...  105 +  106 ...  107 +  108 ...  109 +  110 ...  111
                            +  112 ...  113 +  114 ...  115 +  116 ...  117 +  118 ...  119
                            +  120 ...  121 +  122 ...  123 +  124 ...  125 +  126 ...  127
                            +  128 ...  129 +  130 ...  130
  Reading integrals       ... ok
Time spent in pair loops =   514.311 sec

-----------------------------------------------
 RI-MP2 CORRELATION ENERGY:     -3.958799312 Eh
-----------------------------------------------


-------
TIMINGS
-------

Total time                :  572.276 sec
Integral trafo            :   50.869 sec (  8.9%)
I/O of integrals          :    0.386 sec (  0.1%)
K(i,j) operators          :    6.172 sec (  1.1%)
T(i,j) pair energies      :    0.518 sec (  0.1%)
V**(-1/2)                 :    7.093 sec (  1.2%)


---------------------------------------
MP2 TOTAL ENERGY:    -1535.741015904 Eh
---------------------------------------

Maximum memory used throughout the entire MP2-calculation: 1175.4 MB


-------------------------------------------------------------------------------
                          DFT DISPERSION CORRECTION                            
                                                                               
                                DFTD4 V3.4.0                                   
-------------------------------------------------------------------------------
The REV-DSD-PBEP86-2021 functional is recognized
A user input s6-coefficient scaling factor has been recognized
A user input a1-coefficient scaling factor has been recognized
A user input s8-coefficient scaling factor has been recognized
A user input a2-coefficient scaling factor has been recognized
A user input s9-coefficient scaling factor has been recognized
Active option DFTDOPT                   ...         5   

-------------------------   ----------------
Dispersion correction           -0.069297856
-------------------------   ----------------


-------------------------   --------------------
FINAL SINGLE POINT ENERGY     -1535.810313760236
-------------------------   --------------------



           ************************************************************
           *        Program running with 104 parallel MPI-processes   *
           *              working on a common directory               *
           ************************************************************

------------------------------------------------------------------------------
                              ORCA PROPERTY CALCULATIONS
------------------------------------------------------------------------------

GBWName                                 ... compas3D_hc_c40h22_0pent_1_qz_riri.gbw
Number of atoms                         ...     62
Number of basis functions               ...   2940
Max core memory                         ...   1024 MB

Electric properties:
Dipole moment                           ... YES
Quadrupole moment                       ...  NO
Static polarizability (Dipole/Dipole)   ...  NO
Static polarizability (Dipole/Quad.)    ...  NO
Static polarizability (Quad./Quad.)     ...  NO
Static polarizability (Velocity)        ...  NO

Atomic electric properties:
Dipole moment                           ...  NO
Quadrupole moment                       ...  NO
Static polarizability                   ...  NO

Choice of electric origin               ... Center of mass
Position of electric origin             ...     0.165214     0.069191    -0.042397

General magnetic properties:
Magnetizability                         ...  NO

EPR properties:
g-Tensor (aka g-matrix)                 ...  NO
Zero-Field splitting spin-orbit         ...  NO
Zero-field splitting spin-spin          ...  NO
Hyperfine couplings                     ...  NO (   0 nuclei)
Quadrupole couplings                    ...  NO (   0 nuclei)
Contact density                         ...  NO (   0 nuclei)

NMR properties:
Chemical shifts                         ...  NO (   0 nuclei)
Spin-rotation constants                 ...  NO (   0 nuclei)
Spin-spin couplings                     ...  NO (   0 nuclei,    0 pairs)

Choice of magnetic origin               ... GIAO
Position of magnetic origin             ...     0.000000     0.000000     0.000000

Properties with geometric perturbations:
SCF Hessian                             ...  NO
IR spectrum                             ...  NO
VCD spectrum                            ...  NO
X-ray spectroscopy properties:
SCF XES/XAS/RIXS spectra                ...  NO


-------------
DIPOLE MOMENT
-------------

Method             : SCF
Type of density    : Electron Density
Multiplicity       :   1
Irrep              :   0
Energy             : -1531.7822165920624684 Eh
Relativity type    : 
Basis              : AO
                                X                 Y                 Z
Electronic contribution:      5.451303960       2.338694812      -1.386576676
Nuclear contribution   :     -5.553312474      -2.322806206       1.425593270
                        -----------------------------------------
Total Dipole Moment    :     -0.102008514       0.015888606       0.039016594
                        -----------------------------------------
Magnitude (a.u.)       :      0.110365209
Magnitude (Debye)      :      0.280526068



--------------------
Rotational spectrum 
--------------------
 
Rotational constants in cm-1:             0.005356             0.003059             0.002293 
Rotational constants in MHz :           160.573486            91.695718            68.744360 

Dipole components along the rotational axes: 
x,y,z [a.u.] :     0.061018    -0.090398     0.016897 
x,y,z [Debye]:     0.155096    -0.229773     0.042948 

 

Dipole moment calculation done in   0.7 sec 

Maximum memory used throughout the entire PROP-calculation: 536.0 MB

--------------------------------
SUGGESTED CITATIONS FOR THIS RUN
--------------------------------

Below you find a list of papers that are relevant to this ORCA run
We neither can nor want to force you to cite these papers, but we appreciate if you do
You receive ORCA, which is the product of decades of hard work by many enthusiastic individuals, for free
The only thing we kindly ask in return is that you cite our papers,
We deeply appreciate it, if you show your appreciation for ORCA by not just citing the generic ORCA reference.

Please note that relegating all ORCA citations to the supporting information does *not* help us.
SI sections are not indexed - citations you put there will not count into any citation statistics
But we need these citations in order to attract the funding resources that allow us to do what we are doing

Therefore, if you are a happy ORCA user, please consider citing a few of the papers listed below in the main body of your paper

In addition to the list printed below, the program has created the file compas3D_hc_c40h22_0pent_1_qz_riri.bibtex that contains the list in bibtex format
You can import this file easily into all common literature databanks and citation aid programs


List of essential papers. We consider these as the minimum necessary citations

  1. Neese,F.
     Software update: the ORCA program system, version 5.0
     WIRES Comput. Molec. Sci., 2022 12(1)e1606
     doi.org/10.1002/wcms.1606

List of papers to cite with high priority. The work reported in these papers was absolutely
necessary for this run to complete.
Our perspective: the developers of density functionals and basis sets usually get cited in chemistry papers
Good! But without the algorithms to do something with them, the functionals or basis sets would not do anything.
Hence, in our opinion, the algorithm design and method developments papers are equally worthy of getting cited

  1. Neese,F.
     An improvement of the resolution of the identity approximation for the formation of the Coulomb matrix
     J. Comp. Chem., 2003 24(14)1740-1747
     doi.org/10.1002/jcc.10318
  2. Kossmann,S.; Neese,F.
     Comparison of two efficient approximate Hartee-Fock approaches
     Chem. Phys. Lett., 2009 481 240-243
     doi.org/10.1016/j.cplett.2009.09.073
  3. Neese,F.
     The SHARK Integral Generation and Digestion System
     J. Comp. Chem., 2022  1-16
     doi.org/10.1002/jcc.26942
  4. Caldeweyher,E.; Bannwarth,C.; Grimme,S.
     Extension of the D3 dispersion coefficient model
     J. Chem. Phys., 2017 147 034112
     doi.org/10.1063/1.4993215
  5. Caldeweyher,E.; Ehlert,S.; Hansen,A.; Neugebauer,H.; Spicher,S.; Bannwarth,C.; Grimme,S.
     A generally applicable atomic-charge dependent London dispersion correction
     J. Chem. Phys., 2019 150 154122
     doi.org/10.1063/1.5090222
  6. Caldeweyher,E.; Mewes,J.; Ehlert,S.; Grimme,S.
     Extension and evaluation of the D4 London-dispersion model for periodic systems
     Phys. Chem. Chem. Phys., 2020 22(16)8499-8512
     doi.org/10.1039/D0CP00502A
  7. Wittmann,L.; Gordiy,I.; Friede,M.; Helmich-Paris,B.; Grimme,S.; Hansen,A.; Bursch,M.
     Extension of the D3 and D4 London Dispersion Corrections to the full Actinides Series
     Phys. Chem. Chem. Phys., 2024 26(32)21379-21394
     doi.org/https://doi.org/10.1039/D4CP01514B 

List of suggested additional citations. These are papers that are important in the 'surrounding' of 
of this run, or papers that preceded the highly important papers. If you like your results we are grateful for a citation.

  1. Neese,F.
     The ORCA program system
     WIRES Comput. Molec. Sci., 2012 2(1)73-78
     doi.org/10.1002/wcms.81
  2. Neese,F.
     Software update: the ORCA program system, version 4.0
     WIRES Comput. Molec. Sci., 2018 8(1)1-6
     doi.org/10.1002/wcms.1327
  3. Neese,F.; Wennmohs,F.; Becker,U.; Riplinger,C.
     The ORCA quantum chemistry program package
     J. Chem. Phys., 2020 152 Art. No. L224108
     doi.org/10.1063/5.0004608

List of optional additional citations

  1. Neese,F.
     Approximate second-order SCF convergence for spin unrestricted wavefunctions
     Chem. Phys. Lett., 2000 325(1-3)93-98
     doi.org/10.1016/s0009-2614(00)00662-x

Timings for individual modules:

Sum of individual times          ...     1412.632 sec (=  23.544 min)
Startup calculation              ...       38.135 sec (=   0.636 min)   2.7 %
SCF iterations                   ...      760.015 sec (=  12.667 min)  53.8 %
Property calculations            ...       19.770 sec (=   0.330 min)   1.4 %
MP2 module                       ...      594.713 sec (=   9.912 min)  42.1 %
                             ****ORCA TERMINATED NORMALLY****
TOTAL RUN TIME: 0 days 0 hours 24 minutes 1 seconds 889 msec
