
                                 *****************
                                 * O   R   C   A *
                                 *****************

                                            #,                                       
                                            ###                                      
                                            ####                                     
                                            #####                                    
                                            ######                                   
                                           ########,                                 
                                     ,,################,,,,,                         
                               ,,#################################,,                 
                          ,,##########################################,,             
                       ,#########################################, ''#####,          
                    ,#############################################,,   '####,        
                  ,##################################################,,,,####,       
                ,###########''''           ''''###############################       
              ,#####''   ,,,,##########,,,,          '''####'''          '####       
            ,##' ,,,,###########################,,,                        '##       
           ' ,,###''''                  '''############,,,                           
         ,,##''                                '''############,,,,        ,,,,,,###''
      ,#''                                            '''#######################'''  
     '                                                          ''''####''''         
             ,#######,   #######,   ,#######,      ##                                
            ,#'     '#,  ##    ##  ,#'     '#,    #''#        ,####,   ,####,        
            ##       ##  ##   ,#'  ##            #'  '#       #'       #'  '#        
            ##       ##  #######   ##           ,######,      #####,   #    #        
            '#,     ,#'  ##    ##  '#,     ,#' ,#      #,     #,   #   #,  ,#        
             '#######'   ##     ##  '#######'  #'      '#     '####' # '####'        



                #########################################################
                #                        -***-                          #
                #          Department of theory and spectroscopy        #
                #                                                       #
                #                      Frank Neese                      #
                #                                                       #
                #     Directorship, Architecture, Infrastructure        #
                #                    SHARK, DRIVERS                     #
                #        Core code/Algorithms in most modules           #
                #                                                       #
                #        Max Planck Institute fuer Kohlenforschung      #
                #                Kaiser Wilhelm Platz 1                 #
                #                 D-45470 Muelheim/Ruhr                 #
                #                      Germany                          #
                #                                                       #
                #                  All rights reserved                  #
                #                        -***-                          #
                #########################################################


                         Program Version 6.0.1  -  RELEASE   -


 With contributions from (in alphabetic order):
[Max-Planck-Institut fuer Kohlenforschung]                               
  Daniel Aravena         : Magnetic Suceptibility                        
  Michael Atanasov       : Ab Initio Ligand Field Theory (pilot matlab implementation)
  Alexander A. Auer      : GIAO ZORA, VPT2 properties, NMR spectrum      
  Ute Becker             : All parallelization in ORCA, NUMFREQ, NUMCALC 
  Giovanni Bistoni       : ED, misc. LED, open-shell LED, HFLD           
  Martin Brehm           : Molecular dynamics                            
  Dmytro Bykov           : pre 5.0 version of the SCF Hessian            
  Marcos Casanova-Páez   : Triplet and SCS-CIS(D). UHF-(DLPNO)-IP/EA/STEOM-CCSD. UHF-CVS-IP/STEOM-CCSD   
  Vijay G. Chilkuri      : MRCI spin determinant printing, contributions to CSF-ICE 
  Pauline Colinet        : FMM embedding                                 
  Dipayan Datta          : RHF DLPNO-CCSD density                        
  Achintya Kumar Dutta   : EOM-CC, STEOM-CC                              
  Nicolas Foglia         : Exact transition moments, OPA infrastructure, MCD improvements    
  Dmitry Ganyushin       : Spin-Orbit,Spin-Spin,Magnetic field MRCI      
  Miquel Garcia-Rates    : C-PCM and meta-GGA Hessian, CCSD/C-PCM, Gaussian charge scheme 
  Tiago L. C. Gouveia    : GS-ROHF, GS-ROCIS                             
  Yang Guo               : DLPNO-NEVPT2, F12-NEVPT2, CIM, IAO-localization        
  Andreas Hansen         : Spin unrestricted coupled pair/coupled cluster methods 
  Ingolf Harden          : AUTO-CI MPn and infrastructure                
  Benjamin Helmich-Paris : MC-RPA, TRAH-(SCF,CASSCF), AVAS, COSX integrals, SCF dyn. polar. 
  Lee Huntington         : MR-EOM, pCC                                   
  Robert Izsak           : Overlap fitted RIJCOSX, COSX-SCS-MP3, EOM     
  Riya Kayal             : Wick's Theorem for AUTO-CI, AUTO-CI UHF-CCSDT 
  Emily Kempfer          : AUTO-CI, RHF CISDT and CCSDT                  
  Christian Kollmar      : KDIIS, OOCD, Brueckner-CCSD(T), CCSD density, CASPT2, CASPT2-K, improved NEVPT2 
  Axel Koslowski         : Symmetry handling                             
  Simone Kossmann        : meta-GGA functionals, TD-DFT gradient, OOMP2, (MP2 Hessian; deprecated post 5.0) 
  Lucas Lang             : DCDCAS                                        
  Marvin Lechner         : AUTO-CI (C++ implementation), FIC-MRCC        
  Spencer Leger          : CASSCF response                               
  Dagmar Lenk            : GEPOL surface, SMD, ORCA-2-JSON               
  Dimitrios Liakos       : Extrapolation schemes; Compound Job, initial MDCI parallelization 
  Dimitrios Manganas     : Further ROCIS development; embedding schemes. LFT, Crystal Embedding 
  Dimitrios Pantazis     : SARC Basis sets                               
  Anastasios Papadopoulos: AUTO-CI, single reference methods and gradients 
  Taras Petrenko         : pre 6.0 DFT Hessian and TD-DFT gradient, (ASA, deprecated), ECA, 1-Electron XAS/XES, NRVS 
  Peter Pinski           : DLPNO-MP2, DLPNO-MP2 Gradient                 
  Christoph Reimann      : Effective Core Potentials                     
  Marius Retegan         : Local ZFS, SOC                                
  Christoph Riplinger    : Optimizer, TS searches, QM/MM, DLPNO-CCSD(T), (RO)-DLPNO pert. Triples 
  Michael Roemelt        : Original ROCIS implementation                 
  Masaaki Saitow         : Open-shell DLPNO-CCSD energy and density      
  Barbara Sandhoefer     : DKH picture change effects                    
  Kantharuban Sivalingam : CASSCF convergence/infrastructure, NEVPT2 and variants, FIC-MRCI 
  Bernardo de Souza      : ESD, SOC TD-DFT                               
  Georgi L. Stoychev     : AutoAux, RI-MP2 NMR, DLPNO-MP2 response, X2C  
  Van Anh Tran           : RI-MP2 g-tensors                              
  Willem Van den Heuvel  : Paramagnetic NMR                              
  Zikuan Wang            : NOTCH, Electric field optimization            
  Frank Wennmohs         : Technical directorship and infrastructure     
  Hang Xu                : AUTO-CI-Response properties                   
                                                                         
[FACCTs GmbH]                                                            
  Markus Bursch, Miquel Garcia-Rates, Christoph Riplinger, Bernardo de Souza, Georgi L. Stoychev 
                                                                 
  APM, Basis sets (HGBS, AHGBS, def-TZVP (Ac-Lr), def2-XVPD (La-Lu)), CI-OPT, improved COSX, DLPNO-Multilevel,           
  DOCKER, DRACO, updates on ESD, GOAT, IRC, LR-CPCM, MBIS, meta-GGA TD-DFT gradient, ML-optimized integration grids, 
  MM, NACMEs, nearIR, NEB, NEB-TS, NL-DFT gradient (VV10), 2- and 3-layer-ONIOM, interface openCOSMO-RS, QMMM,   
  Crystal-QMMM, SF, symmetry and pop. for TD-DFT, r2SCAN hybrids, SOLVATOR                                   
                                                                         
[Other institutions]                                                     
  V. Asgeirsson          : NEB                                           
  Christoph Bannwarth    : sTDA-DFT, sTD-DFT, PBEh-3c, B97-3c, D3        
  Sebastian Ehlert       : rSCAN, r2SCAN, r2SCAN-3c, D4, dhf basis sets  
  Marvin Friede          : D4 for Fr, Ra, Ac-Lr                          
  Lars Goerigk           : TD-DFT with DH, B97 family of functionals     
  Stefan Grimme          : VdW corrections, initial TS optimization, DFT functionals, gCP, sTDA/sTD-DF 
  Waldemar Hujo          : DFT-NL                                        
  H. Jonsson             : NEB                                           
  Holger Kruse           : gCP                                           
  Marcel Mueller         : wB97X-3c, vDZP basis set                      
  Hagen Neugebauer       : wr2SCAN                                       
  Tobias Risthaus        : range-separated hybrid DFT                    
  Lukas Wittmann         : regularized MP2, r2SCAN double-hybrids, wr2SCAN        
                                                                         
We gratefully acknowledge several colleagues who have allowed us to      
interface, adapt or use parts of their codes:                            
  Ed Valeev, F. Pavosevic, A. Kumar             : LibInt (2-el integral package), F12 methods 
  Garnet Chan, S. Sharma, J. Yang, R. Olivares  : DMRG                   
  Ulf Ekstrom                                   : XCFun DFT Library      
  Mihaly Kallay                                 : mrcc  (arbitrary order and MRCC methods)
  Frank Weinhold                                : gennbo (NPA and NBO analysis)           
  Simon Mueller                                 : openCOSMO-RS                            
  Christopher J. Cramer and Donald G. Truhlar   : smd solvation model                     
  S Lehtola, MJT Oliveira, MAL Marques          : LibXC Library                           
  Liviu Ungur et al                             : ANISO software                          


 Your calculation uses the libint2 library for the computation of 2-el integrals
 For citations please refer to: http://libint.valeyev.net

 Your ORCA version has been built with support for libXC version: 6.2.2
 For citations please refer to: https://libxc.gitlab.io

 This ORCA versions uses:
   CBLAS   interface :  Fast vector & matrix operations
   LAPACKE interface :  Fast linear algebra routines
   SCALAPACK package :  Parallel linear algebra routines
   Shared memory     :  Shared parallel matrices
   BLAS/LAPACK       :  OpenBLAS 0.3.27  USE64BITINT DYNAMIC_ARCH NO_AFFINITY SapphireRapids SINGLE_THREADED
        Core in use  :  SapphireRapids
   Copyright (c) 2011-2014, The OpenBLAS Project


Warning! Weird basis set assignment to AuxJK basis!


***************************************
The coordinates will be read from file: /g/data/kx58/rs2200/dhdft/inputs/compas3D-xyzs/hc_c36h20_0pent_2.xyz
***************************************


Your calculation utilizes the atom-pairwise dispersion correction
based on EEQ partial charges (D4)


================================================================================

----- Orbital basis set information -----
Your calculation utilizes the basis: def2-QZVPP
   F. Weigend and R. Ahlrichs, Phys. Chem. Chem. Phys. 7, 3297 (2005).

----- AuxC basis set information -----
Your calculation utilizes the auxiliary basis: def2-QZVPP/C
  H-La, Hf-Rn : A. Hellweg, C. Hattig, S. Hofener and W. Klopper, Theor. Chem. Acc. 117, 587 (2007).
        Ce-Lu : J. Chmela and M. E. Harding, Mol. Phys. (2018).

----- AuxJK basis set information -----
Your calculation utilizes the auxiliary basis: def2-QZVPP/C
  H-La, Hf-Rn : A. Hellweg, C. Hattig, S. Hofener and W. Klopper, Theor. Chem. Acc. 117, 587 (2007).
        Ce-Lu : J. Chmela and M. E. Harding, Mol. Phys. (2018).

================================================================================
                                        WARNINGS
                       Please study these warnings very carefully!
================================================================================


WARNING: No MP2 level density has been requested!
         To calculate MP2 level properties use
         %mp2 Density relaxed end
         or
         %mp2 Density unrelaxed end
         Otherwise for double-hybrid DFT only the energy is correct!

================================================================================
                                       INPUT FILE
================================================================================
NAME = compas3D_hc_c36h20_0pent_2_qz_riri.inp
|  1> ! RKS revDSD-PBEP86-D4/2021 defgrid3  RIJK NOPOP NoFrozencore NoUseSym
|  2> 
|  3> %basis
|  4> Basis "def2-QZVPP"
|  5> AuxJK "def2-QZVPP/C"
|  6> AuxC "def2-QZVPP/C"
|  7> end
|  8> 
|  9> %method
| 10> ScalHFX 0.69
| 11> ScalDFX 0.31
| 12> ScalDFC 0.4038
| 13> ScalLDAC 0.4038
| 14> 
| 15> D4S6 0.4612
| 16> D4S8 0.0
| 17> D4A1 0.44
| 18> D4A2 3.60
| 19> end
| 20> 
| 21> %mp2
| 22> PS 0.5979
| 23> PT 0.0571
| 24> 
| 25> end
| 26> 
| 27> %pal
| 28> nprocs 104
| 29> end
| 30> 
| 31> *XYZFILE 0 1 /g/data/kx58/rs2200/dhdft/inputs/compas3D-xyzs/hc_c36h20_0pent_2.xyz
| 32> 
| 33>                          ****END OF INPUT****
================================================================================

                       ****************************
                       * Single Point Calculation *
                       ****************************

---------------------------------
CARTESIAN COORDINATES (ANGSTROEM)
---------------------------------
  C      2.683252   -0.017854   -0.508310
  C      1.941993   -1.226910   -0.558038
  C      0.520618   -1.201474   -0.302266
  C     -0.112101    0.026249   -0.003059
  C      0.730168    1.113864    0.496055
  C      2.071138    1.155034    0.109193
  C      4.010756   -0.018868   -0.954130
  C      4.607929   -1.186191   -1.398259
  C      3.902456   -2.382926   -1.385732
  C      2.573660   -2.431770   -0.960943
  C      1.817910   -3.691392   -0.937591
  C      0.432058   -3.673892   -0.679325
  C     -0.247888   -2.396225   -0.432488
  C     -1.619840   -2.306242   -0.291264
  C     -2.274743   -1.067211   -0.215802
  C     -1.524896    0.133229   -0.198294
  C      0.249410    2.096877    1.446947
  C      1.037310    3.246989    1.712572
  C      2.329203    3.351585    1.122098
  C      2.844538    2.320215    0.401660
  C      2.448798   -4.929475   -1.160651
  C      1.742595   -6.116060   -1.142326
  C      0.367299   -6.097680   -0.893891
  C     -0.269601   -4.893821   -0.666712
  C     -3.711349   -1.017094   -0.162003
  C     -4.370231    0.163181   -0.184025
  C     -3.655684    1.393488   -0.383541
  C     -2.239348    1.381361   -0.451493
  C     -0.950364    1.941090    2.186496
  C     -1.381574    2.904788    3.065026
  C     -0.636401    4.085838    3.255014
  C      0.558357    4.242548    2.598362
  C     -4.358006    2.601497   -0.582554
  C     -3.693628    3.763725   -0.902575
  C     -2.298903    3.737300   -1.065011
  C     -1.593879    2.574087   -0.847834
  H      4.591750    0.901475   -0.953218
  H      5.640697   -1.168869   -1.751322
  H      4.399283   -3.286171   -1.735249
  H     -2.241676   -3.199885   -0.309055
  H      2.926364    4.245709    1.313652
  H      3.869946    2.388612    0.043555
  H      3.522472   -4.965538   -1.337783
  H      2.260330   -7.061600   -1.314599
  H     -0.202441   -7.028624   -0.871145
  H     -1.339566   -4.901438   -0.465213
  H     -4.255847   -1.961418   -0.094390
  H     -5.459862    0.197760   -0.118897
  H     -1.534282    1.031036    2.072922
  H     -2.306645    2.749075    3.623352
  H     -0.994558    4.855035    3.942071
  H      1.173002    5.129991    2.765916
  H     -5.447444    2.591063   -0.501895
  H     -4.247765    4.691156   -1.059911
  H     -1.767148    4.640162   -1.371172
  H     -0.517623    2.574611   -1.002924

----------------------------
CARTESIAN COORDINATES (A.U.)
----------------------------
  NO LB      ZA    FRAG     MASS         X           Y           Z
   0 C     6.0000    0    12.011    5.070612   -0.033740   -0.960566
   1 C     6.0000    0    12.011    3.669834   -2.318524   -1.054539
   2 C     6.0000    0    12.011    0.983825   -2.270458   -0.571200
   3 C     6.0000    0    12.011   -0.211840    0.049604   -0.005781
   4 C     6.0000    0    12.011    1.379818    2.104897    0.937409
   5 C     6.0000    0    12.011    3.913885    2.182698    0.206345
   6 C     6.0000    0    12.011    7.579231   -0.035654   -1.803045
   7 C     6.0000    0    12.011    8.707724   -2.241576   -2.642327
   8 C     6.0000    0    12.011    7.374573   -4.503078   -2.618654
   9 C     6.0000    0    12.011    4.863512   -4.595379   -1.815919
  10 C     6.0000    0    12.011    3.435352   -6.975720   -1.771790
  11 C     6.0000    0    12.011    0.816471   -6.942651   -1.283738
  12 C     6.0000    0    12.011   -0.468440   -4.528210   -0.817284
  13 C     6.0000    0    12.011   -3.061055   -4.358166   -0.550410
  14 C     6.0000    0    12.011   -4.298641   -2.016737   -0.407806
  15 C     6.0000    0    12.011   -2.881635    0.251766   -0.374721
  16 C     6.0000    0    12.011    0.471317    3.962524    2.734334
  17 C     6.0000    0    12.011    1.960231    6.135919    3.236292
  18 C     6.0000    0    12.011    4.401557    6.333578    2.120457
  19 C     6.0000    0    12.011    5.375398    4.384572    0.759028
  20 C     6.0000    0    12.011    4.627558   -9.315358   -2.193313
  21 C     6.0000    0    12.011    3.293028  -11.557679   -2.158684
  22 C     6.0000    0    12.011    0.694095  -11.522945   -1.689208
  23 C     6.0000    0    12.011   -0.509471   -9.247981   -1.259903
  24 C     6.0000    0    12.011   -7.013433   -1.922029   -0.306142
  25 C     6.0000    0    12.011   -8.258541    0.308367   -0.347756
  26 C     6.0000    0    12.011   -6.908241    2.633311   -0.724788
  27 C     6.0000    0    12.011   -4.231755    2.610395   -0.853198
  28 C     6.0000    0    12.011   -1.795927    3.668129    4.131879
  29 C     6.0000    0    12.011   -2.610796    5.489253    5.792059
  30 C     6.0000    0    12.011   -1.202624    7.721114    6.151085
  31 C     6.0000    0    12.011    1.055141    8.017254    4.910192
  32 C     6.0000    0    12.011   -8.235438    4.916116   -1.100868
  33 C     6.0000    0    12.011   -6.979946    7.112410   -1.705619
  34 C     6.0000    0    12.011   -4.344296    7.062473   -2.012578
  35 C     6.0000    0    12.011   -3.011994    4.864319   -1.602175
  36 H     1.0000    0     1.008    8.677150    1.703540   -1.801321
  37 H     1.0000    0     1.008   10.659372   -2.208842   -3.309520
  38 H     1.0000    0     1.008    8.313441   -6.209963   -3.279145
  39 H     1.0000    0     1.008   -4.236154   -6.046907   -0.584029
  40 H     1.0000    0     1.008    5.530026    8.023228    2.482442
  41 H     1.0000    0     1.008    7.313138    4.513823    0.082307
  42 H     1.0000    0     1.008    6.656507   -9.383506   -2.528044
  43 H     1.0000    0     1.008    4.271406  -13.344490   -2.484231
  44 H     1.0000    0     1.008   -0.382559  -13.282174   -1.646226
  45 H     1.0000    0     1.008   -2.531413   -9.262375   -0.879125
  46 H     1.0000    0     1.008   -8.042385   -3.706543   -0.178371
  47 H     1.0000    0     1.008  -10.317645    0.373711   -0.224683
  48 H     1.0000    0     1.008   -2.899374    1.948376    3.917254
  49 H     1.0000    0     1.008   -4.358928    5.194998    6.847144
  50 H     1.0000    0     1.008   -1.879442    9.174686    7.449435
  51 H     1.0000    0     1.008    2.216653    9.694278    5.226823
  52 H     1.0000    0     1.008  -10.294177    4.896399   -0.948445
  53 H     1.0000    0     1.008   -8.027113    8.865000   -2.002942
  54 H     1.0000    0     1.008   -3.339425    8.768635   -2.591139
  55 H     1.0000    0     1.008   -0.978165    4.865309   -1.895251

--------------------------------
INTERNAL COORDINATES (ANGSTROEM)
--------------------------------
 C      0   0   0     0.000000000000     0.00000000     0.00000000
 C      1   0   0     1.419067896610     0.00000000     0.00000000
 C      2   1   0     1.444428302464   119.52552629     0.00000000
 C      3   2   1     1.413210220349   119.56168757   359.85824432
 C      4   3   2     1.463365202229   117.39987939   338.79214153
 C      5   4   3     1.396266207232   118.69780788    28.55761270
 C      1   2   3     1.400365625560   118.90806224   189.62196511
 C      7   1   2     1.384380506200   120.77479628   358.01943469
 C      8   7   1     1.389253300252   120.29271208   358.86583508
 C      9   8   7     1.395898020201   121.08323114     1.65555376
 C     10   9   8     1.469132985792   121.63650204   180.25132619
 C     11  10   9     1.409820083594   119.86396789   188.68335164
 C      3   2   1     1.426530245465   119.94794223   176.04747464
 C     13   3   2     1.382134058547   118.09281288   185.44208695
 C     14  13   3     1.403491848727   121.74608120     9.13970583
 C     15  14  13     1.415497983900   120.14352438   355.97909258
 C      5   4   3     1.449703149013   122.46685888   212.83402864
 C     17   5   4     1.419189067511   119.22051729   190.65804172
 C     18  17   5     1.424285809428   119.04456901   354.86826329
 C     19  18  17     1.359530729568   120.51724855   354.81696033
 C     11  10   9     1.407346815503   121.40925734     9.07501159
 C     21  11  10     1.380957126541   121.63838076   180.12653167
 C     22  21  11     1.397676040658   119.62078245   359.84903799
 C     23  22  21     1.380770906584   119.64263765   359.86215405
 C     15  14  13     1.438486122579   119.91948594   175.70868046
 C     25  15  14     1.351909712856   121.10063090   184.70847098
 C     26  25  15     1.436677208552   120.49729711     5.65210730
 C     27  26  25     1.418016629227   119.74250372   354.96114828
 C     17   5   4     1.417977224064   123.24312211    13.87461280
 C     29  17   5     1.373488144094   121.47700549   180.91710208
 C     30  29  17     1.409346222841   120.54490784     0.07753677
 C     31  30  29     1.372296198526   119.44079600   357.13710807
 C     27  26  25     1.411434351006   120.33326915   171.60320943
 C     33  27  26     1.376439619580   121.01616397   186.31712918
 C     34  33  27     1.404401295215   119.36403143     1.56917037
 C     35  34  33     1.377421065011   120.39580654   357.10023165
 H      7   1   2     1.088386046020   120.34191825   178.23609795
 H      8   7   1     1.091587130242   119.90108954   179.43659428
 H      9   8   7     1.088508071715   118.69427627   180.36001882
 H     14  13   3     1.088850175592   120.78279529   184.53390351
 H     19  18  17     1.092131446304   118.90561511   178.91996292
 H     20  19  18     1.088291607232   118.93670621   185.86851142
 H     21  11  10     1.088784041484   119.80069342     1.09154977
 H     22  21  11     1.091683729023   119.97353036   180.26396206
 H     23  22  21     1.091686201548   120.39928070   180.33133110
 H     24  23  22     1.088800450904   118.53097071   180.60320232
 H     25  15  14     1.092152808227   118.04037067     5.20428036
 H     26  25  15     1.092123012947   120.85921472   181.47586959
 H     29  17   5     1.087225092275   119.46591922     2.15583549
 H     30  29  17     1.091664944617   119.54444401   180.42193853
 H     31  30  29     1.091781891282   120.11853963   178.93272709
 H     32  31  30     1.092437268031   120.61204147   182.75672742
 H     33  27  26     1.092469302885   118.53070060     4.79932964
 H     34  33  27     1.091764694359   120.38406533   179.64626506
 H     35  34  33     1.091630743116   120.04237279   176.71505280
 H     36  35  34     1.087373145174   118.92836726   178.59375516

---------------------------
INTERNAL COORDINATES (A.U.)
---------------------------
 C      0   0   0     0.000000000000     0.00000000     0.00000000
 C      1   0   0     2.681649690032     0.00000000     0.00000000
 C      2   1   0     2.729573911742   119.52552629     0.00000000
 C      3   2   1     2.670580286117   119.56168757   359.85824432
 C      4   3   2     2.765359466124   117.39987939   338.79214153
 C      5   4   3     2.638560741717   118.69780788    28.55761270
 C      1   2   3     2.646307519666   118.90806224   189.62196511
 C      7   1   2     2.616100021858   120.77479628   358.01943469
 C      8   7   1     2.625308268123   120.29271208   358.86583508
 C      9   8   7     2.637864969063   121.08323114     1.65555376
 C     10   9   8     2.776258997456   121.63650204   180.25132619
 C     11  10   9     2.664173856095   119.86396789   188.68335164
 C      3   2   1     2.695751485685   119.94794223   176.04747464
 C     13   3   2     2.611854851019   118.09281288   185.44208695
 C     14  13   3     2.652215225286   121.74608120     9.13970583
 C     15  14  13     2.674903532689   120.14352438   355.97909258
 C      5   4   3     2.739541927118   122.46685888   212.83402864
 C     17   5   4     2.681878669851   119.22051729   190.65804172
 C     18  17   5     2.691510116249   119.04456901   354.86826329
 C     19  18  17     2.569140749534   120.51724855   354.81696033
 C     11  10   9     2.659500056746   121.40925734     9.07501159
 C     21  11  10     2.609630771849   121.63838076   180.12653167
 C     22  21  11     2.641224940787   119.62078245   359.84903799
 C     23  22  21     2.609278867130   119.64263765   359.86215405
 C     15  14  13     2.718344819121   119.91948594   175.70868046
 C     25  15  14     2.554739115087   121.10063090   184.70847098
 C     26  25  15     2.714926467011   120.49729711     5.65210730
 C     27  26  25     2.679663082584   119.74250372   354.96114828
 C     17   5   4     2.679588617619   123.24312211    13.87461280
 C     29  17   5     2.595516440525   121.47700549   180.91710208
 C     30  29  17     2.663278389047   120.54490784     0.07753677
 C     31  30  29     2.593263989836   119.44079600   357.13710807
 C     27  26  25     2.667224379411   120.33326915   171.60320943
 C     33  27  26     2.601093920886   121.01616397   186.31712918
 C     34  33  27     2.653933830081   119.36403143     1.56917037
 C     35  34  33     2.602948583964   120.39580654   357.10023165
 H      7   1   2     2.056751554959   120.34191825   178.23609795
 H      8   7   1     2.062800727470   119.90108954   179.43659428
 H      9   8   7     2.056982150104   118.69427627   180.36001882
 H     14  13   3     2.057628632741   120.78279529   184.53390351
 H     19  18  17     2.063829335758   118.90561511   178.91996292
 H     20  19  18     2.056573091514   118.93670621   185.86851142
 H     21  11  10     2.057503657389   119.80069342     1.09154977
 H     22  21  11     2.062983272711   119.97353036   180.26396206
 H     23  22  21     2.062987945107   120.39928070   180.33133110
 H     24  23  22     2.057534666699   118.53097071   180.60320232
 H     25  15  14     2.063869703941   118.04037067     5.20428036
 H     26  25  15     2.063813399022   120.85921472   181.47586959
 H     29  17   5     2.054557670328   119.46591922     2.15583549
 H     30  29  17     2.062947775329   119.54444401   180.42193853
 H     31  30  29     2.063168772497   120.11853963   178.93272709
 H     32  31  30     2.064407255067   120.61204147   182.75672742
 H     33  27  26     2.064467792168   118.53070060     4.79932964
 H     34  33  27     2.063136275023   120.38406533   179.64626506
 H     35  34  33     2.062883143859   120.04237279   176.71505280
 H     36  35  34     2.054837449760   118.92836726   178.59375516

---------------------
BASIS SET INFORMATION
---------------------
There are 2 groups of distinct atoms

 Group   1 Type C   : 15s8p3d2f1g contracted to 7s4p3d2f1g pattern {8211111/5111/111/11/1}
 Group   2 Type H   : 7s3p2d1f contracted to 4s3p2d1f pattern {4111/111/11/1}

Atom   0C    basis set group =>   1
Atom   1C    basis set group =>   1
Atom   2C    basis set group =>   1
Atom   3C    basis set group =>   1
Atom   4C    basis set group =>   1
Atom   5C    basis set group =>   1
Atom   6C    basis set group =>   1
Atom   7C    basis set group =>   1
Atom   8C    basis set group =>   1
Atom   9C    basis set group =>   1
Atom  10C    basis set group =>   1
Atom  11C    basis set group =>   1
Atom  12C    basis set group =>   1
Atom  13C    basis set group =>   1
Atom  14C    basis set group =>   1
Atom  15C    basis set group =>   1
Atom  16C    basis set group =>   1
Atom  17C    basis set group =>   1
Atom  18C    basis set group =>   1
Atom  19C    basis set group =>   1
Atom  20C    basis set group =>   1
Atom  21C    basis set group =>   1
Atom  22C    basis set group =>   1
Atom  23C    basis set group =>   1
Atom  24C    basis set group =>   1
Atom  25C    basis set group =>   1
Atom  26C    basis set group =>   1
Atom  27C    basis set group =>   1
Atom  28C    basis set group =>   1
Atom  29C    basis set group =>   1
Atom  30C    basis set group =>   1
Atom  31C    basis set group =>   1
Atom  32C    basis set group =>   1
Atom  33C    basis set group =>   1
Atom  34C    basis set group =>   1
Atom  35C    basis set group =>   1
Atom  36H    basis set group =>   2
Atom  37H    basis set group =>   2
Atom  38H    basis set group =>   2
Atom  39H    basis set group =>   2
Atom  40H    basis set group =>   2
Atom  41H    basis set group =>   2
Atom  42H    basis set group =>   2
Atom  43H    basis set group =>   2
Atom  44H    basis set group =>   2
Atom  45H    basis set group =>   2
Atom  46H    basis set group =>   2
Atom  47H    basis set group =>   2
Atom  48H    basis set group =>   2
Atom  49H    basis set group =>   2
Atom  50H    basis set group =>   2
Atom  51H    basis set group =>   2
Atom  52H    basis set group =>   2
Atom  53H    basis set group =>   2
Atom  54H    basis set group =>   2
Atom  55H    basis set group =>   2
---------------------------------
AUXILIARY/C BASIS SET INFORMATION
---------------------------------
There are 2 groups of distinct atoms

 Group   1 Type C   : 9s8p7d5f3g1h contracted to 9s8p7d5f3g1h pattern {111111111/11111111/1111111/11111/111/1}
 Group   2 Type H   : 6s4p3d2f1g contracted to 6s4p3d2f1g pattern {111111/1111/111/11/1}

Atom   0C    basis set group =>   1
Atom   1C    basis set group =>   1
Atom   2C    basis set group =>   1
Atom   3C    basis set group =>   1
Atom   4C    basis set group =>   1
Atom   5C    basis set group =>   1
Atom   6C    basis set group =>   1
Atom   7C    basis set group =>   1
Atom   8C    basis set group =>   1
Atom   9C    basis set group =>   1
Atom  10C    basis set group =>   1
Atom  11C    basis set group =>   1
Atom  12C    basis set group =>   1
Atom  13C    basis set group =>   1
Atom  14C    basis set group =>   1
Atom  15C    basis set group =>   1
Atom  16C    basis set group =>   1
Atom  17C    basis set group =>   1
Atom  18C    basis set group =>   1
Atom  19C    basis set group =>   1
Atom  20C    basis set group =>   1
Atom  21C    basis set group =>   1
Atom  22C    basis set group =>   1
Atom  23C    basis set group =>   1
Atom  24C    basis set group =>   1
Atom  25C    basis set group =>   1
Atom  26C    basis set group =>   1
Atom  27C    basis set group =>   1
Atom  28C    basis set group =>   1
Atom  29C    basis set group =>   1
Atom  30C    basis set group =>   1
Atom  31C    basis set group =>   1
Atom  32C    basis set group =>   1
Atom  33C    basis set group =>   1
Atom  34C    basis set group =>   1
Atom  35C    basis set group =>   1
Atom  36H    basis set group =>   2
Atom  37H    basis set group =>   2
Atom  38H    basis set group =>   2
Atom  39H    basis set group =>   2
Atom  40H    basis set group =>   2
Atom  41H    basis set group =>   2
Atom  42H    basis set group =>   2
Atom  43H    basis set group =>   2
Atom  44H    basis set group =>   2
Atom  45H    basis set group =>   2
Atom  46H    basis set group =>   2
Atom  47H    basis set group =>   2
Atom  48H    basis set group =>   2
Atom  49H    basis set group =>   2
Atom  50H    basis set group =>   2
Atom  51H    basis set group =>   2
Atom  52H    basis set group =>   2
Atom  53H    basis set group =>   2
Atom  54H    basis set group =>   2
Atom  55H    basis set group =>   2
----------------------------------
AUXILIARY/JK BASIS SET INFORMATION
----------------------------------
There are 2 groups of distinct atoms

 Group   1 Type C   : 9s8p7d5f3g1h contracted to 9s8p7d5f3g1h pattern {111111111/11111111/1111111/11111/111/1}
 Group   2 Type H   : 6s4p3d2f1g contracted to 6s4p3d2f1g pattern {111111/1111/111/11/1}

Atom   0C    basis set group =>   1
Atom   1C    basis set group =>   1
Atom   2C    basis set group =>   1
Atom   3C    basis set group =>   1
Atom   4C    basis set group =>   1
Atom   5C    basis set group =>   1
Atom   6C    basis set group =>   1
Atom   7C    basis set group =>   1
Atom   8C    basis set group =>   1
Atom   9C    basis set group =>   1
Atom  10C    basis set group =>   1
Atom  11C    basis set group =>   1
Atom  12C    basis set group =>   1
Atom  13C    basis set group =>   1
Atom  14C    basis set group =>   1
Atom  15C    basis set group =>   1
Atom  16C    basis set group =>   1
Atom  17C    basis set group =>   1
Atom  18C    basis set group =>   1
Atom  19C    basis set group =>   1
Atom  20C    basis set group =>   1
Atom  21C    basis set group =>   1
Atom  22C    basis set group =>   1
Atom  23C    basis set group =>   1
Atom  24C    basis set group =>   1
Atom  25C    basis set group =>   1
Atom  26C    basis set group =>   1
Atom  27C    basis set group =>   1
Atom  28C    basis set group =>   1
Atom  29C    basis set group =>   1
Atom  30C    basis set group =>   1
Atom  31C    basis set group =>   1
Atom  32C    basis set group =>   1
Atom  33C    basis set group =>   1
Atom  34C    basis set group =>   1
Atom  35C    basis set group =>   1
Atom  36H    basis set group =>   2
Atom  37H    basis set group =>   2
Atom  38H    basis set group =>   2
Atom  39H    basis set group =>   2
Atom  40H    basis set group =>   2
Atom  41H    basis set group =>   2
Atom  42H    basis set group =>   2
Atom  43H    basis set group =>   2
Atom  44H    basis set group =>   2
Atom  45H    basis set group =>   2
Atom  46H    basis set group =>   2
Atom  47H    basis set group =>   2
Atom  48H    basis set group =>   2
Atom  49H    basis set group =>   2
Atom  50H    basis set group =>   2
Atom  51H    basis set group =>   2
Atom  52H    basis set group =>   2
Atom  53H    basis set group =>   2
Atom  54H    basis set group =>   2
Atom  55H    basis set group =>   2


           ************************************************************
           *        Program running with 104 parallel MPI-processes   *
           *              working on a common directory               *
           ************************************************************
------------------------------------------------------------------------------
                             ORCA STARTUP CALCULATIONS
                           -- RI-GTO INTEGRALS CHOSEN --
------------------------------------------------------------------------------
------------------------------------------------------------------------------
                   ___                                                        
                  /   \      - P O W E R E D   B Y -                         
                 /     \                                                     
                 |  |  |   _    _      __       _____    __    __             
                 |  |  |  | |  | |    /  \     |  _  \  |  |  /  |          
                  \  \/   | |  | |   /    \    | | | |  |  | /  /          
                 / \  \   | |__| |  /  /\  \   | |_| |  |  |/  /          
                |  |  |   |  __  | /  /__\  \  |    /   |      \           
                |  |  |   | |  | | |   __   |  |    \   |  |\   \          
                \     /   | |  | | |  |  |  |  | |\  \  |  | \   \       
                 \___/    |_|  |_| |__|  |__|  |_| \__\ |__|  \__/        
                                                                              
                      - O R C A' S   B I G   F R I E N D -                    
                                      &                                       
                       - I N T E G R A L  F E E D E R -                       
                                                                              
 v1 FN, 2020, v2 2021, v3 2022-2024                                           
------------------------------------------------------------------------------


----------------------
SHARK INTEGRAL PACKAGE
----------------------

Number of atoms                             ...     56
Number of basis functions                   ...   2652
Number of shells                            ...    812
Maximum angular momentum                    ...      4
Integral batch strategy                     ... SHARK/LIBINT Hybrid
RI-J (if used) integral strategy            ... SPLIT-RIJ (Revised 2003 algorithm where possible)
Printlevel                                  ...      1
Contraction scheme used                     ... SEGMENTED contraction
Prescreening option                         ... SCHWARTZ
   Thresh                                   ... 1.000e-10
   Tcut                                     ... 1.000e-11
   Tpresel                                  ... 1.000e-11 
Coulomb Range Separation                    ... NOT USED
Exchange Range Separation                   ... NOT USED
Multipole approximations                    ... NOT USED
Finite Nucleus Model                        ... NOT USED
CABS basis                                  ... NOT available
Auxiliary Coulomb fitting basis             ... NOT available
Auxiliary J/K fitting basis                 ... AVAILABLE
   # of basis functions in Aux-JK           ...   6196
   # of shells in Aux-JK                    ...   1508
   Maximum angular momentum in Aux-JK       ...      5
Auxiliary Correlation fitting basis         ... AVAILABLE
   # of basis functions in Aux-C            ...   6196
   # of shells in Aux-C                     ...   1508
   Maximum angular momentum in Aux-C        ...      5
Auxiliary 'external' fitting basis          ... NOT available

Checking pre-screening integrals            ... done (  0.0 sec) Dimension = 812
Check shell pair data                       ... done (  0.0 sec)
Shell pair information
Shell pair cut-off parameter TPreSel        ...   1.0e-11
Total number of shell pairs                 ...    330078
Shell pairs after pre-screening             ...    171269
Total number of primitive shell pairs       ...    852384
Primitive shell pairs kept                  ...    294598
          la=0 lb=0:  26023 shell pairs
          la=1 lb=0:  39396 shell pairs
          la=1 lb=1:  14023 shell pairs
          la=2 lb=0:  23013 shell pairs
          la=2 lb=1:  17802 shell pairs
          la=2 lb=2:   5389 shell pairs
          la=3 lb=0:  13525 shell pairs
          la=3 lb=1:  10500 shell pairs
          la=3 lb=2:   6121 shell pairs
          la=3 lb=3:   1788 shell pairs
          la=4 lb=0:   5355 shell pairs
          la=4 lb=1:   4195 shell pairs
          la=4 lb=2:   2434 shell pairs
          la=4 lb=3:   1401 shell pairs
          la=4 lb=4:    304 shell pairs

Calculating one electron integrals          ... done (  1.0 sec)
Calculating RI/JK V-Matrix + Cholesky decomp... done (  1.7 sec)
Calculating RI/C V-Matrix + Cholesky decomp.... done (  1.4 sec)
Calculating Nuclear repulsion               ... done (  0.0 sec) ENN=   3497.710187429419 Eh

Diagonalization of the overlap matrix:
Smallest eigenvalue                        ... 1.322e-07
Time for diagonalization                   ...    1.079 sec
Threshold for overlap eigenvalues          ... 1.000e-07
Number of eigenvalues below threshold      ... 0

IMPORTANT:
Smallest eigenvalue of S below the DiffSThresh (1.000e-06) while
Thresh>1e-12 and/or TCut>1e-13! In order to avoid SCF convergence issues,
Thresh will be set to at least 1e-12 and TCut to at least 1e-13.
This can be turned off by adding %SCF DiffSThresh -1 END to the input.

Time for construction of square roots      ...    0.701 sec
Total time needed                          ...    1.858 sec

-------------------
DFT GRID GENERATION
-------------------

General Integration Accuracy     IntAcc      ... 4.959
Radial Grid Type                 RadialGrid  ... OptM3 with GC (2021)
Angular Grid (max. ang.)         AngularGrid ... 6 (Lebedev-590)
Angular grid pruning method      GridPruning ... 4 (adaptive)
Weight generation scheme         WeightScheme... mBecke (2022)
Basis function cutoff            BFCut       ... 1.0000e-10
Integration weight cutoff        WCut        ... 1.0000e-14
Partially contracted basis set               ... off
Rotationally invariant grid construction     ... off
Angular grids for H and He will be reduced by one unit
Diffuse basis detected: some atoms will have their outermost
                        angular grid increased by 1.

Total number of grid points                  ...   688412
Total number of batches                      ...    10789
Average number of points per batch           ...       63
Average number of grid points per atom       ...    12293
Initializing property integral containers    ... done (  0.0 sec)

SHARK setup successfully completed in  15.8 seconds

Maximum memory used throughout the entire STARTUP-calculation: 339.2 MB


           ************************************************************
           *        Program running with 104 parallel MPI-processes   *
           *              working on a common directory               *
           ************************************************************
-------------------------------------------------------------------------------
                                 ORCA GUESS
                   Start orbitals & Density for SCF / CASSCF
-------------------------------------------------------------------------------

------------
SCF SETTINGS
------------
Hamiltonian:
 Density Functional     Method          .... DFT(GTOs)
 Exchange Functional    Exchange        .... PBE
   PBE kappa parameter   XKappa         ....  0.804000
   PBE mue parameter    XMuePBE         ....  0.219520
 Correlation Functional Correlation     .... P86
 LDA part of GGA corr.  LDAOpt          .... VWN-5
 Gradients option       PostSCFGGA      .... off
 Hybrid DFT is turned on
   Fraction HF Exchange ScalHFX         ....  0.690000
   Scaling of DF-GGA-X  ScalDFX         ....  0.310000
   Scaling of DF-GGA-C  ScalDFC         ....  0.403800
   Scaling of DF-LDA-C  ScalLDAC        ....  0.403800
   Perturbative correction              ....  1.000000
 RI-approximation to the Coulomb term is turned on
   Number of AuxJK basis functions      .... 6196
   RI-JK (J+K treated both via RI)      .... on


General Settings:
 Integral files         IntName         .... compas3D_hc_c36h20_0pent_2_qz_riri
 Hartree-Fock type      HFTyp           .... RHF
 Total Charge           Charge          ....    0
 Multiplicity           Mult            ....    1
 Number of Electrons    NEL             ....  236
 Basis Dimension        Dim             .... 2652
 Nuclear Repulsion      ENuc            ....   3497.7101874294 Eh

Convergence Acceleration:
 AO-DIIS                CNVDIIS         .... on
   Start iteration      DIISMaxIt       ....    12
   Startup error        DIISStart       ....  0.200000
   # of expansion vecs  DIISMaxEq       ....     5
   Bias factor          DIISBfac        ....   1.050
   Max. coefficient     DIISMaxC        ....  10.000
 MO-DIIS                CNVKDIIS        .... off
 Trust-Rad. Augm. Hess. CNVTRAH         .... auto
   Auto Start mean grad. ratio tolernc. ....  1.125000
   Auto Start start iteration           ....    50
   Auto Start num. interpolation iter.  ....    10
   Max. Number of Micro iterations      ....    24
   Max. Number of Macro iterations      .... Maxiter - #DIIS iter
   Number of Davidson start vectors     ....     2
   Converg. threshold    (grad. norm)   ....   5.000e-05
   Grad. Scal. Fac. for Micro threshold ....   0.100
   Minimum threshold for Micro iter.    ....   1.000e-02
   NR start threshold (gradient norm)   ....   1.000e-04
   Initial trust radius                 ....   0.400
   Minimum AH scaling param. (alpha)    ....   1.000
   Maximum AH scaling param. (alpha)    .... 1000.000
   Quad. conv. algorithm                .... NR
   White noise on init. David. guess    .... on
   Maximum white noise                  ....   0.010
   Pseudo random numbers                .... off
   Inactive MOs                         .... canonical
   Orbital update algorithm             .... Taylor
   Preconditioner                       .... Diag
   Full preconditioner red. dimension   ....   250
 SOSCF                  CNVSOSCF        .... on
   Start iteration      SOSCFMaxIt      ....   150
   Startup grad/error   SOSCFStart      ....  0.003300
   Hessian update       SOSCFHessUp     .... L-BFGS
 Level Shifting         CNVShift        .... on
   Level shift para.    LevelShift      ....    0.2500
   Turn off err/grad.   ShiftErr        ....    0.0010
 Zerner damping         CNVZerner       .... off
 Static damping         CNVDamp         .... on
   Fraction old density DampFac         ....    0.7000
   Max. Damping (<1)    DampMax         ....    0.9800
   Min. Damping (>=0)   DampMin         ....    0.0000
   Turn off err/grad.   DampErr         ....    0.1000

SCF Procedure:
 Maximum # iterations   MaxIter         ....   125
 SCF integral mode      SCFMode         .... Direct
   Integral package                     .... SHARK and LIBINT hybrid scheme
 Reset frequency        DirectResetFreq ....    20
 Integral Threshold     Thresh          ....  1.000e-12 Eh
 Primitive CutOff       TCut            ....  1.000e-13 Eh

Convergence Tolerance:
 Convergence Check Mode ConvCheckMode   .... Total+1el-Energy
 Convergence forced     ConvForced      .... 0
 Energy Change          TolE            ....  1.000e-06 Eh
 1-El. energy change                    ....  1.000e-03 Eh
 Orbital Gradient       TolG            ....  5.000e-05
 Orbital Rotation angle TolX            ....  5.000e-05
 DIIS Error             TolErr          ....  1.000e-06

------------------------------
INITIAL GUESS: MODEL POTENTIAL
------------------------------
Loading Hartree-Fock densities                     ... done
Calculating cut-offs                               ... done
Initializing the effective Hamiltonian             ... done
Setting up the integral package (SHARK)            ... done
Starting the Coulomb interaction                   ... done (   0.7 sec)
Making the grid                                    ... done (   0.5 sec)
Mapping shells                                     ... done
Starting the XC term evaluation                    ... done (   0.2 sec)
  promolecular density results
     # of electrons  =    235.991993930
     EX              =   -190.164725917
     EC              =      0.292353522
     EX+EC           =   -189.872372395
Transforming the Hamiltonian                       ... done (   0.5 sec)
Diagonalizing the Hamiltonian                      ... done (   0.7 sec)
Back transforming the eigenvectors                 ... done (   1.0 sec)
Now organizing SCF variables                       ... done
                      ------------------
                      INITIAL GUESS DONE (   5.2 sec)
                      ------------------
             **** ENERGY FILE WAS UPDATED (compas3D_hc_c36h20_0pent_2_qz_riri.en.tmp) ****
Finished Guess after  23.1 sec
Maximum memory used throughout the entire GUESS-calculation: 388.2 MB


           ************************************************************
           *        Program running with 104 parallel MPI-processes   *
           *              working on a common directory               *
           ************************************************************

-------------------------------------------------------------------------------------------
                                      ORCA LEAN-SCF
                              memory conserving SCF solver
-------------------------------------------------------------------------------------------


Warning (ORCA_SCF): Not enough memory available!
                    Memory available for SCF calculation:       1024.0 MB
                    Memory needed (estimated)           :       1235.1 MB


----------------------------------------D-I-I-S--------------------------------------------
Iteration    Energy (Eh)           Delta-E    RMSDP     MaxDP     DIISErr   Damp  Time(sec)
-------------------------------------------------------------------------------------------
    1    -1377.9955788654988282     0.00e+00  1.01e-03  3.87e-01  1.51e-01  0.700  44.1
    2    -1377.7484286839280685     2.47e-01  1.52e-03  5.88e-01  1.35e-01  0.700  46.3
                               ***Turning on AO-DIIS***
    3    -1377.9043917972030613    -1.56e-01  4.81e-04  1.62e-01  7.91e-02  0.700  43.9
    4    -1378.2151462203119081    -3.11e-01  1.23e-03  5.23e-01  4.10e-02  0.000  45.9
    5    -1378.7052895960332535    -4.90e-01  5.53e-04  2.07e-01  3.40e-02  0.000  45.6
    6    -1378.7254345459959950    -2.01e-02  1.71e-04  6.84e-02  1.59e-02  0.000  45.3
    7    -1378.7306245979380037    -5.19e-03  6.95e-05  2.62e-02  5.30e-03  0.000  45.1
                              *** Initializing SOSCF ***
---------------------------------------S-O-S-C-F--------------------------------------
Iteration    Energy (Eh)           Delta-E    RMSDP     MaxDP     MaxGrad    Time(sec)
--------------------------------------------------------------------------------------
    8    -1378.7312676506644493    -6.43e-04  9.48e-05  3.56e-02  1.38e-03    49.4
    9    -1378.7313228044886273    -5.52e-05  3.51e-05  1.33e-02  1.40e-04    42.9
   10    -1378.7313285834425187    -5.78e-06  4.62e-05  1.75e-02  1.46e-04    43.2
   11    -1378.7313298953349658    -1.31e-06  1.02e-05  3.89e-03  6.58e-05    42.6
   12    -1378.7313303645323685    -4.69e-07  4.81e-06  1.85e-03  1.52e-05    42.5
                 **** Energy Check signals convergence ****

               *****************************************************
               *                     SUCCESS                       *
               *           SCF CONVERGED AFTER  12 CYCLES          *
               *****************************************************

             **** ENERGY FILE WAS UPDATED (compas3D_hc_c36h20_0pent_2_qz_riri.en.tmp) ****

----------------
TOTAL SCF ENERGY
----------------

Total Energy       :      -1378.73133036453237 Eh          -37517.18684 eV

Components:
Nuclear Repulsion  :       3497.71018742941851 Eh           95177.53293 eV
Electronic Energy  :      -4876.44151779395088 Eh         -132694.71977 eV
One Electron Energy:      -8825.90197248326331 Eh         -240165.00242 eV
Two Electron Energy:       3949.46045468931243 Eh          107470.28266 eV

Virial components:
Potential Energy   :      -2753.38739101808824 Eh          -74923.47995 eV
Kinetic Energy     :       1374.65606065355610 Eh           37406.29311 eV
Virial Ratio       :          2.00296457406883

DFT components:
N(Alpha)           :      118.000023253314 electrons
N(Beta)            :      118.000023253314 electrons
N(Total)           :      236.000046506628 electrons
E(X)               :      -59.918880953523 Eh       
E(C)               :       -3.522289279297 Eh       
E(XC)              :      -63.441170232820 Eh       

---------------
SCF CONVERGENCE
---------------

  Last Energy change         ...    4.6920e-07  Tolerance :   1.0000e-06
  Last MAX-Density change    ...    1.8494e-03  Tolerance :   1.0000e-05
  Last RMS-Density change    ...    4.8056e-06  Tolerance :   1.0000e-06
  Last DIIS Error            ...    1.3785e-03  Tolerance :   1.0000e-06
  Last Orbital Gradient      ...    1.5237e-05  Tolerance :   5.0000e-05
  Last Orbital Rotation      ...    4.1523e-05  Tolerance :   5.0000e-05


----------------
ORBITAL ENERGIES
----------------

  NO   OCC          E(Eh)            E(eV) 
   0   2.0000     -10.843722      -295.0727 
   1   2.0000     -10.841093      -295.0011 
   2   2.0000     -10.840399      -294.9823 
   3   2.0000     -10.840010      -294.9717 
   4   2.0000     -10.839777      -294.9653 
   5   2.0000     -10.839572      -294.9597 
   6   2.0000     -10.839373      -294.9543 
   7   2.0000     -10.838962      -294.9431 
   8   2.0000     -10.838663      -294.9350 
   9   2.0000     -10.838246      -294.9237 
  10   2.0000     -10.837979      -294.9164 
  11   2.0000     -10.835276      -294.8429 
  12   2.0000     -10.834373      -294.8183 
  13   2.0000     -10.834303      -294.8164 
  14   2.0000     -10.831842      -294.7494 
  15   2.0000     -10.831010      -294.7268 
  16   2.0000     -10.826633      -294.6076 
  17   2.0000     -10.826616      -294.6072 
  18   2.0000     -10.826613      -294.6071 
  19   2.0000     -10.826462      -294.6030 
  20   2.0000     -10.826240      -294.5970 
  21   2.0000     -10.825545      -294.5781 
  22   2.0000     -10.825425      -294.5748 
  23   2.0000     -10.825301      -294.5714 
  24   2.0000     -10.825116      -294.5664 
  25   2.0000     -10.824943      -294.5617 
  26   2.0000     -10.824923      -294.5611 
  27   2.0000     -10.824840      -294.5589 
  28   2.0000     -10.822506      -294.4954 
  29   2.0000     -10.822150      -294.4857 
  30   2.0000     -10.821332      -294.4634 
  31   2.0000     -10.821074      -294.4564 
  32   2.0000     -10.819397      -294.4108 
  33   2.0000     -10.819126      -294.4034 
  34   2.0000     -10.817959      -294.3716 
  35   2.0000     -10.817951      -294.3714 
  36   2.0000      -1.100269       -29.9398 
  37   2.0000      -1.071512       -29.1573 
  38   2.0000      -1.068977       -29.0883 
  39   2.0000      -1.046267       -28.4704 
  40   2.0000      -1.037655       -28.2360 
  41   2.0000      -1.011773       -27.5317 
  42   2.0000      -0.998623       -27.1739 
  43   2.0000      -0.978489       -26.6260 
  44   2.0000      -0.962083       -26.1796 
  45   2.0000      -0.957974       -26.0678 
  46   2.0000      -0.935518       -25.4567 
  47   2.0000      -0.926484       -25.2109 
  48   2.0000      -0.923058       -25.1177 
  49   2.0000      -0.904882       -24.6231 
  50   2.0000      -0.892835       -24.2953 
  51   2.0000      -0.890599       -24.2344 
  52   2.0000      -0.877624       -23.8814 
  53   2.0000      -0.868579       -23.6352 
  54   2.0000      -0.796161       -21.6646 
  55   2.0000      -0.788940       -21.4682 
  56   2.0000      -0.785360       -21.3707 
  57   2.0000      -0.774116       -21.0648 
  58   2.0000      -0.758422       -20.6377 
  59   2.0000      -0.753430       -20.5019 
  60   2.0000      -0.742509       -20.2047 
  61   2.0000      -0.737355       -20.0645 
  62   2.0000      -0.712675       -19.3929 
  63   2.0000      -0.706837       -19.2340 
  64   2.0000      -0.695800       -18.9337 
  65   2.0000      -0.663162       -18.0455 
  66   2.0000      -0.651721       -17.7342 
  67   2.0000      -0.639494       -17.4015 
  68   2.0000      -0.637414       -17.3449 
  69   2.0000      -0.622392       -16.9361 
  70   2.0000      -0.614363       -16.7177 
  71   2.0000      -0.611219       -16.6321 
  72   2.0000      -0.605779       -16.4841 
  73   2.0000      -0.585474       -15.9316 
  74   2.0000      -0.581213       -15.8156 
  75   2.0000      -0.576671       -15.6920 
  76   2.0000      -0.561973       -15.2921 
  77   2.0000      -0.558488       -15.1972 
  78   2.0000      -0.552603       -15.0371 
  79   2.0000      -0.541317       -14.7300 
  80   2.0000      -0.540403       -14.7051 
  81   2.0000      -0.536598       -14.6016 
  82   2.0000      -0.531222       -14.4553 
  83   2.0000      -0.530484       -14.4352 
  84   2.0000      -0.522994       -14.2314 
  85   2.0000      -0.520000       -14.1499 
  86   2.0000      -0.517050       -14.0696 
  87   2.0000      -0.514301       -13.9948 
  88   2.0000      -0.507267       -13.8034 
  89   2.0000      -0.502644       -13.6776 
  90   2.0000      -0.497435       -13.5359 
  91   2.0000      -0.484446       -13.1824 
  92   2.0000      -0.479454       -13.0466 
  93   2.0000      -0.476075       -12.9547 
  94   2.0000      -0.472011       -12.8441 
  95   2.0000      -0.463092       -12.6014 
  96   2.0000      -0.459889       -12.5142 
  97   2.0000      -0.457612       -12.4523 
  98   2.0000      -0.448456       -12.2031 
  99   2.0000      -0.438700       -11.9376 
 100   2.0000      -0.435049       -11.8383 
 101   2.0000      -0.430615       -11.7176 
 102   2.0000      -0.429453       -11.6860 
 103   2.0000      -0.419903       -11.4261 
 104   2.0000      -0.407646       -11.0926 
 105   2.0000      -0.404379       -11.0037 
 106   2.0000      -0.395369       -10.7585 
 107   2.0000      -0.369904       -10.0656 
 108   2.0000      -0.358203        -9.7472 
 109   2.0000      -0.357465        -9.7271 
 110   2.0000      -0.335684        -9.1344 
 111   2.0000      -0.317581        -8.6418 
 112   2.0000      -0.310679        -8.4540 
 113   2.0000      -0.286627        -7.7995 
 114   2.0000      -0.275592        -7.4992 
 115   2.0000      -0.270929        -7.3724 
 116   2.0000      -0.251957        -6.8561 
 117   2.0000      -0.236958        -6.4479 
 118   0.0000      -0.006326        -0.1721 
 119   0.0000       0.009541         0.2596 
 120   0.0000       0.020583         0.5601 
 121   0.0000       0.030867         0.8399 
 122   0.0000       0.045014         1.2249 
 123   0.0000       0.066077         1.7980 
 124   0.0000       0.069606         1.8941 
 125   0.0000       0.071035         1.9330 
 126   0.0000       0.074901         2.0382 
 127   0.0000       0.076881         2.0920 
 128   0.0000       0.085822         2.3353 
*Only the first 10 virtual orbitals were printed.
-------
TIMINGS
-------

Total SCF time: 0 days 0 hours 9 min 17 sec 

Total time                  ....     557.480 sec
Sum of individual times     ....     557.150 sec  ( 99.9%)

SCF preparation             ....      17.054 sec  (  3.1%)
Fock matrix formation       ....     487.567 sec  ( 87.5%)
  Startup                   ....       3.546 sec  (  0.7% of F)
  RI-JK                     ....     449.928 sec  ( 92.3% of F)
  XC integration            ....      25.574 sec  (  5.2% of F)
    XC Preparation          ....       0.000 sec  (  0.0% of XC)
    Basis function eval.    ....       1.578 sec  (  6.2% of XC)
    Density eval.           ....       5.124 sec  ( 20.0% of XC)
    XC-Functional eval.     ....       0.044 sec  (  0.2% of XC)
    XC-Potential eval.      ....       6.573 sec  ( 25.7% of XC)
Diagonalization             ....       0.000 sec  (  0.0%)
Density matrix formation    ....       7.830 sec  (  1.4%)
Total Energy calculation    ....       2.329 sec  (  0.4%)
Population analysis         ....       0.000 sec  (  0.0%)
Orbital Transformation      ....       5.143 sec  (  0.9%)
Orbital Orthonormalization  ....       0.000 sec  (  0.0%)
DIIS solution               ....      27.603 sec  (  5.0%)
SOSCF solution              ....       9.360 sec  (  1.7%)
Finished LeanSCF after 558.1 sec

Maximum memory used throughout the entire LEANSCF-calculation: 1295.1 MB


           ************************************************************
           *        Program running with 104 parallel MPI-processes   *
           *              working on a common directory               *
           ************************************************************

------------------------------------------------------------------------------
                                ORCA  MP2 
------------------------------------------------------------------------------


-------------
RI-MP2 ENERGY
-------------
Dimension of the orbital basis            ... 2652
Dimension of the AuxC basis               ... 6196
Memory devoted to MP2                     ... 4096 MB   
Data format for matrix containers         ... DOUBLE
Compression type for matrix containers    ... UNCOMPRESSED
Scaling for aa/bb pairs                   ...   5.710e-02
Scaling for ab pairs                      ...   5.979e-01
Overall scaling of the MP2 energy         ...   1.000e+00

-----------------------
SHARK RI TRANSFORMATION
-----------------------

Number of basis functions                ...   2652
Number of aux functions                  ...   6196
Number of operators                      ...      1
Generation of IJK                        ... NO
Generation of IAK                        ... YES
Generation of ABK                        ... NO
Orbital Range Operator  0:    0- 117 to  118-2651

Aux basis identifier                     ...   AUXC
Contraction scheme used                  ... SEGMENTED
Do orthogonalization                     ... YES
All operator combinations                ... NO
Transpose (ia|K)                         ... NO
Integral generator used                  ... LIBINT
Starting integral generation + trafo... 
Half trafo (segmented) done. Total time = 16.4 sec. integrals=  3.4 sec trafo= 12.0 sec
Integral generation and half transformation done ( 16.4 sec)

Reading or making V^(-1/2)          ... done (  0.6 sec)
Sorting IAK integrals               ... done ( 15.9 sec)

SHARK RI integral transformation done. Total time = 33.2 sec.

Opening buffers                              ... done

Starting loop over batches of integrals:

Operator 0  - window                       ... (  0-117)x(118-2651)
Operator 0  - Memory available             ...  4096 MB
Operator 0  - Memory needed per MO         ... 119.8 MB
Operator 0  - Number of orbitals per batch ... 2
Operator 0  - Number of batches            ... 1

OPERATOR  0   PASS   0:  MOs     0 ...    1 +    2 ...    3 +    4 ...    5 +    6 ...    7
                            +    8 ...    9 +   10 ...   11 +   12 ...   13 +   14 ...   15
                            +   16 ...   17 +   18 ...   19 +   20 ...   21 +   22 ...   23
                            +   24 ...   25 +   26 ...   27 +   28 ...   29 +   30 ...   31
                            +   32 ...   33 +   34 ...   35 +   36 ...   37 +   38 ...   39
                            +   40 ...   41 +   42 ...   43 +   44 ...   45 +   46 ...   47
                            +   48 ...   49 +   50 ...   51 +   52 ...   53 +   54 ...   55
                            +   56 ...   57 +   58 ...   59 +   60 ...   61 +   62 ...   63
                            +   64 ...   65 +   66 ...   67 +   68 ...   69 +   70 ...   71
                            +   72 ...   73 +   74 ...   75 +   76 ...   77 +   78 ...   79
                            +   80 ...   81 +   82 ...   83 +   84 ...   85 +   86 ...   87
                            +   88 ...   89 +   90 ...   91 +   92 ...   93 +   94 ...   95
                            +   96 ...   97 +   98 ...   99 +  100 ...  101 +  102 ...  103
                            +  104 ...  105 +  106 ...  107 +  108 ...  109 +  110 ...  111
                            +  112 ...  113 +  114 ...  115 +  116 ...  117
  Reading integrals       ... ok
Time spent in pair loops =   338.463 sec

-----------------------------------------------
 RI-MP2 CORRELATION ENERGY:     -3.556576552 Eh
-----------------------------------------------


-------
TIMINGS
-------

Total time                :  377.496 sec
Integral trafo            :   33.611 sec (  8.9%)
I/O of integrals          :    0.296 sec (  0.1%)
K(i,j) operators          :    4.315 sec (  1.1%)
T(i,j) pair energies      :    0.432 sec (  0.1%)
V**(-1/2)                 :    5.421 sec (  1.4%)


---------------------------------------
MP2 TOTAL ENERGY:    -1382.287906916 Eh
---------------------------------------

Maximum memory used throughout the entire MP2-calculation: 957.5 MB


-------------------------------------------------------------------------------
                          DFT DISPERSION CORRECTION                            
                                                                               
                                DFTD4 V3.4.0                                   
-------------------------------------------------------------------------------
The REV-DSD-PBEP86-2021 functional is recognized
A user input s6-coefficient scaling factor has been recognized
A user input a1-coefficient scaling factor has been recognized
A user input s8-coefficient scaling factor has been recognized
A user input a2-coefficient scaling factor has been recognized
A user input s9-coefficient scaling factor has been recognized
Active option DFTDOPT                   ...         5   

-------------------------   ----------------
Dispersion correction           -0.060937392
-------------------------   ----------------


-------------------------   --------------------
FINAL SINGLE POINT ENERGY     -1382.348844308268
-------------------------   --------------------



           ************************************************************
           *        Program running with 104 parallel MPI-processes   *
           *              working on a common directory               *
           ************************************************************

------------------------------------------------------------------------------
                              ORCA PROPERTY CALCULATIONS
------------------------------------------------------------------------------

GBWName                                 ... compas3D_hc_c36h20_0pent_2_qz_riri.gbw
Number of atoms                         ...     56
Number of basis functions               ...   2652
Max core memory                         ...   1024 MB

Electric properties:
Dipole moment                           ... YES
Quadrupole moment                       ...  NO
Static polarizability (Dipole/Dipole)   ...  NO
Static polarizability (Dipole/Quad.)    ...  NO
Static polarizability (Quad./Quad.)     ...  NO
Static polarizability (Velocity)        ...  NO

Atomic electric properties:
Dipole moment                           ...  NO
Quadrupole moment                       ...  NO
Static polarizability                   ...  NO

Choice of electric origin               ... Center of mass
Position of electric origin             ...     0.088720    -0.111285    -0.040188

General magnetic properties:
Magnetizability                         ...  NO

EPR properties:
g-Tensor (aka g-matrix)                 ...  NO
Zero-Field splitting spin-orbit         ...  NO
Zero-field splitting spin-spin          ...  NO
Hyperfine couplings                     ...  NO (   0 nuclei)
Quadrupole couplings                    ...  NO (   0 nuclei)
Contact density                         ...  NO (   0 nuclei)

NMR properties:
Chemical shifts                         ...  NO (   0 nuclei)
Spin-rotation constants                 ...  NO (   0 nuclei)
Spin-spin couplings                     ...  NO (   0 nuclei,    0 pairs)

Choice of magnetic origin               ... GIAO
Position of magnetic origin             ...     0.000000     0.000000     0.000000

Properties with geometric perturbations:
SCF Hessian                             ...  NO
IR spectrum                             ...  NO
VCD spectrum                            ...  NO
X-ray spectroscopy properties:
SCF XES/XAS/RIXS spectra                ...  NO


-------------
DIPOLE MOMENT
-------------

Method             : SCF
Type of density    : Electron Density
Multiplicity       :   1
Irrep              :   0
Energy             : -1378.7313303645323685 Eh
Relativity type    : 
Basis              : AO
                                X                 Y                 Z
Electronic contribution:      2.687056437      -3.352212141      -1.208797178
Nuclear contribution   :     -2.692555314       3.377371742       1.219652245
                        -----------------------------------------
Total Dipole Moment    :     -0.005498876       0.025159600       0.010855067
                        -----------------------------------------
Magnitude (a.u.)       :      0.027947730
Magnitude (Debye)      :      0.071037483



--------------------
Rotational spectrum 
--------------------
 
Rotational constants in cm-1:             0.006329             0.003257             0.002410 
Rotational constants in MHz :           189.739514            97.652254            72.244844 

Dipole components along the rotational axes: 
x,y,z [a.u.] :     0.026752     0.007227     0.003628 
x,y,z [Debye]:     0.067999     0.018369     0.009221 

 

Dipole moment calculation done in   0.5 sec 

Maximum memory used throughout the entire PROP-calculation: 437.3 MB

--------------------------------
SUGGESTED CITATIONS FOR THIS RUN
--------------------------------

Below you find a list of papers that are relevant to this ORCA run
We neither can nor want to force you to cite these papers, but we appreciate if you do
You receive ORCA, which is the product of decades of hard work by many enthusiastic individuals, for free
The only thing we kindly ask in return is that you cite our papers,
We deeply appreciate it, if you show your appreciation for ORCA by not just citing the generic ORCA reference.

Please note that relegating all ORCA citations to the supporting information does *not* help us.
SI sections are not indexed - citations you put there will not count into any citation statistics
But we need these citations in order to attract the funding resources that allow us to do what we are doing

Therefore, if you are a happy ORCA user, please consider citing a few of the papers listed below in the main body of your paper

In addition to the list printed below, the program has created the file compas3D_hc_c36h20_0pent_2_qz_riri.bibtex that contains the list in bibtex format
You can import this file easily into all common literature databanks and citation aid programs


List of essential papers. We consider these as the minimum necessary citations

  1. Neese,F.
     Software update: the ORCA program system, version 5.0
     WIRES Comput. Molec. Sci., 2022 12(1)e1606
     doi.org/10.1002/wcms.1606

List of papers to cite with high priority. The work reported in these papers was absolutely
necessary for this run to complete.
Our perspective: the developers of density functionals and basis sets usually get cited in chemistry papers
Good! But without the algorithms to do something with them, the functionals or basis sets would not do anything.
Hence, in our opinion, the algorithm design and method developments papers are equally worthy of getting cited

  1. Neese,F.
     An improvement of the resolution of the identity approximation for the formation of the Coulomb matrix
     J. Comp. Chem., 2003 24(14)1740-1747
     doi.org/10.1002/jcc.10318
  2. Kossmann,S.; Neese,F.
     Comparison of two efficient approximate Hartee-Fock approaches
     Chem. Phys. Lett., 2009 481 240-243
     doi.org/10.1016/j.cplett.2009.09.073
  3. Neese,F.
     The SHARK Integral Generation and Digestion System
     J. Comp. Chem., 2022  1-16
     doi.org/10.1002/jcc.26942
  4. Caldeweyher,E.; Bannwarth,C.; Grimme,S.
     Extension of the D3 dispersion coefficient model
     J. Chem. Phys., 2017 147 034112
     doi.org/10.1063/1.4993215
  5. Caldeweyher,E.; Ehlert,S.; Hansen,A.; Neugebauer,H.; Spicher,S.; Bannwarth,C.; Grimme,S.
     A generally applicable atomic-charge dependent London dispersion correction
     J. Chem. Phys., 2019 150 154122
     doi.org/10.1063/1.5090222
  6. Caldeweyher,E.; Mewes,J.; Ehlert,S.; Grimme,S.
     Extension and evaluation of the D4 London-dispersion model for periodic systems
     Phys. Chem. Chem. Phys., 2020 22(16)8499-8512
     doi.org/10.1039/D0CP00502A
  7. Wittmann,L.; Gordiy,I.; Friede,M.; Helmich-Paris,B.; Grimme,S.; Hansen,A.; Bursch,M.
     Extension of the D3 and D4 London Dispersion Corrections to the full Actinides Series
     Phys. Chem. Chem. Phys., 2024 26(32)21379-21394
     doi.org/https://doi.org/10.1039/D4CP01514B 

List of suggested additional citations. These are papers that are important in the 'surrounding' of 
of this run, or papers that preceded the highly important papers. If you like your results we are grateful for a citation.

  1. Neese,F.
     The ORCA program system
     WIRES Comput. Molec. Sci., 2012 2(1)73-78
     doi.org/10.1002/wcms.81
  2. Neese,F.
     Software update: the ORCA program system, version 4.0
     WIRES Comput. Molec. Sci., 2018 8(1)1-6
     doi.org/10.1002/wcms.1327
  3. Neese,F.; Wennmohs,F.; Becker,U.; Riplinger,C.
     The ORCA quantum chemistry program package
     J. Chem. Phys., 2020 152 Art. No. L224108
     doi.org/10.1063/5.0004608

List of optional additional citations

  1. Neese,F.
     Approximate second-order SCF convergence for spin unrestricted wavefunctions
     Chem. Phys. Lett., 2000 325(1-3)93-98
     doi.org/10.1016/s0009-2614(00)00662-x

Timings for individual modules:

Sum of individual times          ...     1030.204 sec (=  17.170 min)
Startup calculation              ...       32.116 sec (=   0.535 min)   3.1 %
SCF iterations                   ...      583.982 sec (=   9.733 min)  56.7 %
Property calculations            ...       18.106 sec (=   0.302 min)   1.8 %
MP2 module                       ...      395.999 sec (=   6.600 min)  38.4 %
                             ****ORCA TERMINATED NORMALLY****
TOTAL RUN TIME: 0 days 0 hours 17 minutes 27 seconds 87 msec
