
                                 *****************
                                 * O   R   C   A *
                                 *****************

                                            #,                                       
                                            ###                                      
                                            ####                                     
                                            #####                                    
                                            ######                                   
                                           ########,                                 
                                     ,,################,,,,,                         
                               ,,#################################,,                 
                          ,,##########################################,,             
                       ,#########################################, ''#####,          
                    ,#############################################,,   '####,        
                  ,##################################################,,,,####,       
                ,###########''''           ''''###############################       
              ,#####''   ,,,,##########,,,,          '''####'''          '####       
            ,##' ,,,,###########################,,,                        '##       
           ' ,,###''''                  '''############,,,                           
         ,,##''                                '''############,,,,        ,,,,,,###''
      ,#''                                            '''#######################'''  
     '                                                          ''''####''''         
             ,#######,   #######,   ,#######,      ##                                
            ,#'     '#,  ##    ##  ,#'     '#,    #''#        ,####,   ,####,        
            ##       ##  ##   ,#'  ##            #'  '#       #'       #'  '#        
            ##       ##  #######   ##           ,######,      #####,   #    #        
            '#,     ,#'  ##    ##  '#,     ,#' ,#      #,     #,   #   #,  ,#        
             '#######'   ##     ##  '#######'  #'      '#     '####' # '####'        



                #########################################################
                #                        -***-                          #
                #          Department of theory and spectroscopy        #
                #                                                       #
                #                      Frank Neese                      #
                #                                                       #
                #     Directorship, Architecture, Infrastructure        #
                #                    SHARK, DRIVERS                     #
                #        Core code/Algorithms in most modules           #
                #                                                       #
                #        Max Planck Institute fuer Kohlenforschung      #
                #                Kaiser Wilhelm Platz 1                 #
                #                 D-45470 Muelheim/Ruhr                 #
                #                      Germany                          #
                #                                                       #
                #                  All rights reserved                  #
                #                        -***-                          #
                #########################################################


                         Program Version 6.0.1  -  RELEASE   -


 With contributions from (in alphabetic order):
[Max-Planck-Institut fuer Kohlenforschung]                               
  Daniel Aravena         : Magnetic Suceptibility                        
  Michael Atanasov       : Ab Initio Ligand Field Theory (pilot matlab implementation)
  Alexander A. Auer      : GIAO ZORA, VPT2 properties, NMR spectrum      
  Ute Becker             : All parallelization in ORCA, NUMFREQ, NUMCALC 
  Giovanni Bistoni       : ED, misc. LED, open-shell LED, HFLD           
  Martin Brehm           : Molecular dynamics                            
  Dmytro Bykov           : pre 5.0 version of the SCF Hessian            
  Marcos Casanova-Páez   : Triplet and SCS-CIS(D). UHF-(DLPNO)-IP/EA/STEOM-CCSD. UHF-CVS-IP/STEOM-CCSD   
  Vijay G. Chilkuri      : MRCI spin determinant printing, contributions to CSF-ICE 
  Pauline Colinet        : FMM embedding                                 
  Dipayan Datta          : RHF DLPNO-CCSD density                        
  Achintya Kumar Dutta   : EOM-CC, STEOM-CC                              
  Nicolas Foglia         : Exact transition moments, OPA infrastructure, MCD improvements    
  Dmitry Ganyushin       : Spin-Orbit,Spin-Spin,Magnetic field MRCI      
  Miquel Garcia-Rates    : C-PCM and meta-GGA Hessian, CCSD/C-PCM, Gaussian charge scheme 
  Tiago L. C. Gouveia    : GS-ROHF, GS-ROCIS                             
  Yang Guo               : DLPNO-NEVPT2, F12-NEVPT2, CIM, IAO-localization        
  Andreas Hansen         : Spin unrestricted coupled pair/coupled cluster methods 
  Ingolf Harden          : AUTO-CI MPn and infrastructure                
  Benjamin Helmich-Paris : MC-RPA, TRAH-(SCF,CASSCF), AVAS, COSX integrals, SCF dyn. polar. 
  Lee Huntington         : MR-EOM, pCC                                   
  Robert Izsak           : Overlap fitted RIJCOSX, COSX-SCS-MP3, EOM     
  Riya Kayal             : Wick's Theorem for AUTO-CI, AUTO-CI UHF-CCSDT 
  Emily Kempfer          : AUTO-CI, RHF CISDT and CCSDT                  
  Christian Kollmar      : KDIIS, OOCD, Brueckner-CCSD(T), CCSD density, CASPT2, CASPT2-K, improved NEVPT2 
  Axel Koslowski         : Symmetry handling                             
  Simone Kossmann        : meta-GGA functionals, TD-DFT gradient, OOMP2, (MP2 Hessian; deprecated post 5.0) 
  Lucas Lang             : DCDCAS                                        
  Marvin Lechner         : AUTO-CI (C++ implementation), FIC-MRCC        
  Spencer Leger          : CASSCF response                               
  Dagmar Lenk            : GEPOL surface, SMD, ORCA-2-JSON               
  Dimitrios Liakos       : Extrapolation schemes; Compound Job, initial MDCI parallelization 
  Dimitrios Manganas     : Further ROCIS development; embedding schemes. LFT, Crystal Embedding 
  Dimitrios Pantazis     : SARC Basis sets                               
  Anastasios Papadopoulos: AUTO-CI, single reference methods and gradients 
  Taras Petrenko         : pre 6.0 DFT Hessian and TD-DFT gradient, (ASA, deprecated), ECA, 1-Electron XAS/XES, NRVS 
  Peter Pinski           : DLPNO-MP2, DLPNO-MP2 Gradient                 
  Christoph Reimann      : Effective Core Potentials                     
  Marius Retegan         : Local ZFS, SOC                                
  Christoph Riplinger    : Optimizer, TS searches, QM/MM, DLPNO-CCSD(T), (RO)-DLPNO pert. Triples 
  Michael Roemelt        : Original ROCIS implementation                 
  Masaaki Saitow         : Open-shell DLPNO-CCSD energy and density      
  Barbara Sandhoefer     : DKH picture change effects                    
  Kantharuban Sivalingam : CASSCF convergence/infrastructure, NEVPT2 and variants, FIC-MRCI 
  Bernardo de Souza      : ESD, SOC TD-DFT                               
  Georgi L. Stoychev     : AutoAux, RI-MP2 NMR, DLPNO-MP2 response, X2C  
  Van Anh Tran           : RI-MP2 g-tensors                              
  Willem Van den Heuvel  : Paramagnetic NMR                              
  Zikuan Wang            : NOTCH, Electric field optimization            
  Frank Wennmohs         : Technical directorship and infrastructure     
  Hang Xu                : AUTO-CI-Response properties                   
                                                                         
[FACCTs GmbH]                                                            
  Markus Bursch, Miquel Garcia-Rates, Christoph Riplinger, Bernardo de Souza, Georgi L. Stoychev 
                                                                 
  APM, Basis sets (HGBS, AHGBS, def-TZVP (Ac-Lr), def2-XVPD (La-Lu)), CI-OPT, improved COSX, DLPNO-Multilevel,           
  DOCKER, DRACO, updates on ESD, GOAT, IRC, LR-CPCM, MBIS, meta-GGA TD-DFT gradient, ML-optimized integration grids, 
  MM, NACMEs, nearIR, NEB, NEB-TS, NL-DFT gradient (VV10), 2- and 3-layer-ONIOM, interface openCOSMO-RS, QMMM,   
  Crystal-QMMM, SF, symmetry and pop. for TD-DFT, r2SCAN hybrids, SOLVATOR                                   
                                                                         
[Other institutions]                                                     
  V. Asgeirsson          : NEB                                           
  Christoph Bannwarth    : sTDA-DFT, sTD-DFT, PBEh-3c, B97-3c, D3        
  Sebastian Ehlert       : rSCAN, r2SCAN, r2SCAN-3c, D4, dhf basis sets  
  Marvin Friede          : D4 for Fr, Ra, Ac-Lr                          
  Lars Goerigk           : TD-DFT with DH, B97 family of functionals     
  Stefan Grimme          : VdW corrections, initial TS optimization, DFT functionals, gCP, sTDA/sTD-DF 
  Waldemar Hujo          : DFT-NL                                        
  H. Jonsson             : NEB                                           
  Holger Kruse           : gCP                                           
  Marcel Mueller         : wB97X-3c, vDZP basis set                      
  Hagen Neugebauer       : wr2SCAN                                       
  Tobias Risthaus        : range-separated hybrid DFT                    
  Lukas Wittmann         : regularized MP2, r2SCAN double-hybrids, wr2SCAN        
                                                                         
We gratefully acknowledge several colleagues who have allowed us to      
interface, adapt or use parts of their codes:                            
  Ed Valeev, F. Pavosevic, A. Kumar             : LibInt (2-el integral package), F12 methods 
  Garnet Chan, S. Sharma, J. Yang, R. Olivares  : DMRG                   
  Ulf Ekstrom                                   : XCFun DFT Library      
  Mihaly Kallay                                 : mrcc  (arbitrary order and MRCC methods)
  Frank Weinhold                                : gennbo (NPA and NBO analysis)           
  Simon Mueller                                 : openCOSMO-RS                            
  Christopher J. Cramer and Donald G. Truhlar   : smd solvation model                     
  S Lehtola, MJT Oliveira, MAL Marques          : LibXC Library                           
  Liviu Ungur et al                             : ANISO software                          


 Your calculation uses the libint2 library for the computation of 2-el integrals
 For citations please refer to: http://libint.valeyev.net

 Your ORCA version has been built with support for libXC version: 6.2.2
 For citations please refer to: https://libxc.gitlab.io

 This ORCA versions uses:
   CBLAS   interface :  Fast vector & matrix operations
   LAPACKE interface :  Fast linear algebra routines
   SCALAPACK package :  Parallel linear algebra routines
   Shared memory     :  Shared parallel matrices
   BLAS/LAPACK       :  OpenBLAS 0.3.27  USE64BITINT DYNAMIC_ARCH NO_AFFINITY SapphireRapids SINGLE_THREADED
        Core in use  :  SapphireRapids
   Copyright (c) 2011-2014, The OpenBLAS Project




***************************************
The coordinates will be read from file: /scratch/kx58/rs2200/dhdft/inputs/compas3x-xyzs/hc_c24h14_0pent_14.xyz
***************************************


Your calculation utilizes the atom-pairwise dispersion correction
based on EEQ partial charges (D4)


Warning: RI is on but no J-basis has been assigned. Assigning Def2/J (nothing to worry about!)
================================================================================

----- Orbital basis set information -----
Your calculation utilizes the basis: def2-QZVPP
   F. Weigend and R. Ahlrichs, Phys. Chem. Chem. Phys. 7, 3297 (2005).

----- AuxJ basis set information -----
Your calculation utilizes the auxiliary basis: def2/J
   F. Weigend, Phys. Chem. Chem. Phys. 8, 1057 (2006).

----- AuxC basis set information -----
Your calculation utilizes the auxiliary basis: def2-QZVPP/C
  H-La, Hf-Rn : A. Hellweg, C. Hattig, S. Hofener and W. Klopper, Theor. Chem. Acc. 117, 587 (2007).
        Ce-Lu : J. Chmela and M. E. Harding, Mol. Phys. (2018).

================================================================================
                                        WARNINGS
                       Please study these warnings very carefully!
================================================================================


WARNING: No MP2 level density has been requested!
         To calculate MP2 level properties use
         %mp2 Density relaxed end
         or
         %mp2 Density unrelaxed end
         Otherwise for double-hybrid DFT only the energy is correct!

================================================================================
                                       INPUT FILE
================================================================================
NAME = compas3x_hc_c24h14_0pent_14_qz_ri.inp
|  1> ! RKS revDSD-PBEP86-D4/2021 defgrid3  NOPOP NoFrozencore NoUseSym
|  2> 
|  3> %basis
|  4> Basis "def2-QZVPP"
|  5> 
|  6> AuxC "def2-QZVPP/C"
|  7> end
|  8> 
|  9> %method
| 10> ScalHFX 0.69
| 11> ScalDFX 0.31
| 12> ScalDFC 0.4038
| 13> ScalLDAC 0.4038
| 14> 
| 15> D4S6 0.4612
| 16> D4S8 0.0
| 17> D4A1 0.44
| 18> D4A2 3.60
| 19> end
| 20> 
| 21> %mp2
| 22> PS 0.5979
| 23> PT 0.0571
| 24> end
| 25> 
| 26> %pal
| 27> nprocs 104
| 28> end
| 29> 
| 30> *XYZFILE 0 1 /scratch/kx58/rs2200/dhdft/inputs/compas3x-xyzs/hc_c24h14_0pent_14.xyz
| 31> 
| 32>                          ****END OF INPUT****
================================================================================

                       ****************************
                       * Single Point Calculation *
                       ****************************

---------------------------------
CARTESIAN COORDINATES (ANGSTROEM)
---------------------------------
  C      0.750579    0.058559    0.022760
  C     -0.537246   -0.573746    0.053945
  C     -1.718945    0.208372    0.052018
  C     -1.627561    1.659711   -0.069754
  C     -0.353138    2.281672    0.000692
  C      0.836246    1.512863    0.095792
  C      1.868960   -0.724259   -0.079469
  C      1.815027   -2.136483   -0.100155
  C      0.568010   -2.792163    0.009653
  C     -0.628013   -1.988972    0.086613
  C     -1.895634   -2.578955    0.186205
  C     -3.031700   -1.810156    0.245925
  C     -2.946260   -0.428965    0.169493
  C     -2.744672    2.457462   -0.246344
  C     -2.650975    3.848126   -0.308793
  C     -1.438051    4.465258   -0.179790
  C     -0.266157    3.699436   -0.023396
  C      0.990405    4.321364    0.109436
  C      2.119729    3.566021    0.263980
  C      2.042813    2.173518    0.250768
  C      2.997004   -2.891672   -0.208595
  C      2.958980   -4.260493   -0.202166
  C      1.730987   -4.913987   -0.083983
  C      0.564829   -4.195807    0.019571
  H      2.849591   -0.279867   -0.150575
  H     -1.993846   -3.651427    0.223980
  H     -3.999232   -2.281011    0.342590
  H     -3.859672    0.141461    0.212998
  H     -3.723722    2.017273   -0.346452
  H     -3.549718    4.431252   -0.448657
  H     -1.357589    5.542403   -0.202367
  H      1.041909    5.400422    0.094530
  H      3.082673    4.040218    0.387256
  H      2.959475    1.618755    0.371416
  H      3.939463   -2.369407   -0.295325
  H      3.869284   -4.835809   -0.285487
  H      1.699348   -5.993789   -0.075762
  H     -0.363178   -4.738179    0.106452

----------------------------
CARTESIAN COORDINATES (A.U.)
----------------------------
  NO LB      ZA    FRAG     MASS         X           Y           Z
   0 C     6.0000    0    12.011    1.418389    0.110660    0.043010
   1 C     6.0000    0    12.011   -1.015248   -1.084222    0.101941
   2 C     6.0000    0    12.011   -3.248336    0.393766    0.098299
   3 C     6.0000    0    12.011   -3.075644    3.136399   -0.131816
   4 C     6.0000    0    12.011   -0.667334    4.311734    0.001307
   5 C     6.0000    0    12.011    1.580276    2.858898    0.181020
   6 C     6.0000    0    12.011    3.531822   -1.368651   -0.150174
   7 C     6.0000    0    12.011    3.429904   -4.037368   -0.189266
   8 C     6.0000    0    12.011    1.073384   -5.276423    0.018241
   9 C     6.0000    0    12.011   -1.186772   -3.758612    0.163674
  10 C     6.0000    0    12.011   -3.582228   -4.873518    0.351876
  11 C     6.0000    0    12.011   -5.729083   -3.420700    0.464730
  12 C     6.0000    0    12.011   -5.567625   -0.810626    0.320296
  13 C     6.0000    0    12.011   -5.186678    4.643930   -0.465523
  14 C     6.0000    0    12.011   -5.009618    7.271905   -0.583535
  15 C     6.0000    0    12.011   -2.717523    8.438115   -0.339753
  16 C     6.0000    0    12.011   -0.502963    6.990920   -0.044212
  17 C     6.0000    0    12.011    1.871595    8.166194    0.206803
  18 C     6.0000    0    12.011    4.005707    6.738802    0.498850
  19 C     6.0000    0    12.011    3.860358    4.107353    0.473882
  20 C     6.0000    0    12.011    5.663518   -5.464469   -0.394187
  21 C     6.0000    0    12.011    5.591661   -8.051165   -0.382039
  22 C     6.0000    0    12.011    3.271091   -9.286089   -0.158706
  23 C     6.0000    0    12.011    1.067372   -7.928927    0.036984
  24 H     1.0000    0     1.008    5.384946   -0.528871   -0.284546
  25 H     1.0000    0     1.008   -3.767823   -6.900196    0.423261
  26 H     1.0000    0     1.008   -7.557454   -4.310486    0.647402
  27 H     1.0000    0     1.008   -7.293724    0.267323    0.402509
  28 H     1.0000    0     1.008   -7.036815    3.812094   -0.654699
  29 H     1.0000    0     1.008   -6.707995    8.373853   -0.847839
  30 H     1.0000    0     1.008   -2.565472   10.473624   -0.382418
  31 H     1.0000    0     1.008    1.968922   10.205319    0.178636
  32 H     1.0000    0     1.008    5.825408    7.634906    0.731807
  33 H     1.0000    0     1.008    5.592597    3.059004    0.701874
  34 H     1.0000    0     1.008    7.444506   -4.477530   -0.558084
  35 H     1.0000    0     1.008    7.311888   -9.138354   -0.539493
  36 H     1.0000    0     1.008    3.211302  -11.326621   -0.143169
  37 H     1.0000    0     1.008   -0.686308   -8.953861    0.201165

--------------------------------
INTERNAL COORDINATES (ANGSTROEM)
--------------------------------
 C      0   0   0     0.000000000000     0.00000000     0.00000000
 C      1   0   0     1.435017570554     0.00000000     0.00000000
 C      2   1   0     1.417083003652   120.34073295     0.00000000
 C      3   2   1     1.459302509607   119.78867125     3.98422762
 C      4   3   2     1.419841786323   119.19128592   351.38382791
 C      5   4   3     1.419416804772   121.21012686     4.32103317
 C      1   2   3     1.368952196375   118.86979582   185.02343273
 C      7   1   2     1.413404864760   122.77076008   357.29793477
 C      8   7   1     1.413161107488   119.74412476   358.93754646
 C      2   1   3     1.418509839348   119.83667693   179.98795500
 C     10   2   1     1.401735119667   118.64765148   176.75681924
 C     11  10   2     1.373049589240   121.04176634     0.26246807
 C     12  11  10     1.385940774269   120.30449647     1.87176013
 C      4   3   2     1.384025837439   122.23241532   171.68603250
 C     14   4   3     1.395215708886   121.73728911   177.42991695
 C     15  14   4     1.366996089371   120.35397876   359.23469210
 C     16  15  14     1.408644775864   120.21239935     1.94249323
 C     17  16  15     1.408327709596   120.84164550   179.94264437
 C     18  17  16     1.367405688091   120.23893893   179.83564319
 C      6   5   4     1.384299811892   118.64360407   184.23082676
 C      8   7   1     1.406819293562   120.35966757   179.92132680
 C     21   8   7     1.369363917900   120.85726255   178.65793128
 C     22  21   8     1.396061126543   119.52051343   359.88323573
 C     23  22  21     1.373473456471   120.56123702     0.28590502
 H      7   1   2     1.078971050687   120.79059526   177.20879970
 H     11  10   2     1.077621503774   120.25122895   180.67296304
 H     12  11  10     1.080354710443   120.05670912   181.23361139
 H     13  12  11     1.077775844364   118.22766631   179.58605691
 H     14   4   3     1.078112900437   120.62973362   357.07880984
 H     15  14   4     1.080433397251   119.20174442   179.94560302
 H     16  15  14     1.080382127951   120.94452331   181.51410756
 H     18  17  16     1.080389803423   118.83544633     0.30667852
 H     19  18  17     1.080426641606   120.43327710   181.30775210
 H     20   6   5     1.078232854051   120.52916080   177.19024403
 H     21   8   7     1.080976927637   118.64269145   358.78469530
 H     22  21   8     1.080085688668   120.57597136   180.01272233
 H     23  22  21     1.080297442767   119.62291764   180.18183768
 H     24  23  22     1.078384448581   118.27771583   179.83504705

---------------------------
INTERNAL COORDINATES (A.U.)
---------------------------
 C      0   0   0     0.000000000000     0.00000000     0.00000000
 C      1   0   0     2.711790205712     0.00000000     0.00000000
 C      2   1   0     2.677898785938   120.34073295     0.00000000
 C      3   2   1     2.757682089702   119.78867125     3.98422762
 C      4   3   2     2.683112129647   119.19128592   351.38382791
 C      5   4   3     2.682309030905   121.21012686     4.32103317
 C      1   2   3     2.586944741579   118.86979582   185.02343273
 C      7   1   2     2.670948110749   122.77076008   357.29793477
 C      8   7   1     2.670487476262   119.74412476   358.93754646
 C      2   1   3     2.680595114641   119.83667693   179.98795500
 C     10   2   1     2.648895488470   118.64765148   176.75681924
 C     11  10   2     2.594687691957   121.04176634     0.26246807
 C     12  11  10     2.619048501204   120.30449647     1.87176013
 C      4   3   2     2.615429795031   122.23241532   171.68603250
 C     14   4   3     2.636575587540   121.73728911   177.42991695
 C     15  14   4     2.583248235053   120.35397876   359.23469210
 C     16  15  14     2.661952846361   120.21239935     1.94249323
 C     17  16  15     2.661353677950   120.84164550   179.94264437
 C     18  17  16     2.584022264458   120.23893893   179.83564319
 C      6   5   4     2.615947531715   118.64360407   184.23082676
 C      8   7   1     2.658503184748   120.35966757   179.92132680
 C     21   8   7     2.587722782504   120.85726255   178.65793128
 C     22  21   8     2.638173195381   119.52051343   359.88323573
 C     23  22  21     2.595488684939   120.56123702     0.28590502
 H      7   1   2     2.038959792229   120.79059526   177.20879970
 H     11  10   2     2.036409518158   120.25122895   180.67296304
 H     12  11  10     2.041574530229   120.05670912   181.23361139
 H     13  12  11     2.036701179604   118.22766631   179.58605691
 H     14   4   3     2.037338123273   120.62973362   357.07880984
 H     15  14   4     2.041723226747   119.20174442   179.94560302
 H     16  15  14     2.041626341811   120.94452331   181.51410756
 H     18  17  16     2.041640846350   118.83544633     0.30667852
 H     19  18  17     2.041710460427   120.43327710   181.30775210
 H     20   6   5     2.037564802752   120.52916080   177.19024403
 H     21   8   7     2.042750350322   118.64269145   358.78469530
 H     22  21   8     2.041066152751   120.57597136   180.01272233
 H     23  22  21     2.041466310005   119.62291764   180.18183768
 H     24  23  22     2.037851274897   118.27771583   179.83504705

---------------------
BASIS SET INFORMATION
---------------------
There are 2 groups of distinct atoms

 Group   1 Type C   : 15s8p3d2f1g contracted to 7s4p3d2f1g pattern {8211111/5111/111/11/1}
 Group   2 Type H   : 7s3p2d1f contracted to 4s3p2d1f pattern {4111/111/11/1}

Atom   0C    basis set group =>   1
Atom   1C    basis set group =>   1
Atom   2C    basis set group =>   1
Atom   3C    basis set group =>   1
Atom   4C    basis set group =>   1
Atom   5C    basis set group =>   1
Atom   6C    basis set group =>   1
Atom   7C    basis set group =>   1
Atom   8C    basis set group =>   1
Atom   9C    basis set group =>   1
Atom  10C    basis set group =>   1
Atom  11C    basis set group =>   1
Atom  12C    basis set group =>   1
Atom  13C    basis set group =>   1
Atom  14C    basis set group =>   1
Atom  15C    basis set group =>   1
Atom  16C    basis set group =>   1
Atom  17C    basis set group =>   1
Atom  18C    basis set group =>   1
Atom  19C    basis set group =>   1
Atom  20C    basis set group =>   1
Atom  21C    basis set group =>   1
Atom  22C    basis set group =>   1
Atom  23C    basis set group =>   1
Atom  24H    basis set group =>   2
Atom  25H    basis set group =>   2
Atom  26H    basis set group =>   2
Atom  27H    basis set group =>   2
Atom  28H    basis set group =>   2
Atom  29H    basis set group =>   2
Atom  30H    basis set group =>   2
Atom  31H    basis set group =>   2
Atom  32H    basis set group =>   2
Atom  33H    basis set group =>   2
Atom  34H    basis set group =>   2
Atom  35H    basis set group =>   2
Atom  36H    basis set group =>   2
Atom  37H    basis set group =>   2
---------------------------------
AUXILIARY/J BASIS SET INFORMATION
---------------------------------
There are 2 groups of distinct atoms

 Group   1 Type C   : 12s5p4d2f1g contracted to 6s4p3d1f1g pattern {711111/2111/211/2/1}
 Group   2 Type H   : 5s2p1d contracted to 3s1p1d pattern {311/2/1}

Atom   0C    basis set group =>   1
Atom   1C    basis set group =>   1
Atom   2C    basis set group =>   1
Atom   3C    basis set group =>   1
Atom   4C    basis set group =>   1
Atom   5C    basis set group =>   1
Atom   6C    basis set group =>   1
Atom   7C    basis set group =>   1
Atom   8C    basis set group =>   1
Atom   9C    basis set group =>   1
Atom  10C    basis set group =>   1
Atom  11C    basis set group =>   1
Atom  12C    basis set group =>   1
Atom  13C    basis set group =>   1
Atom  14C    basis set group =>   1
Atom  15C    basis set group =>   1
Atom  16C    basis set group =>   1
Atom  17C    basis set group =>   1
Atom  18C    basis set group =>   1
Atom  19C    basis set group =>   1
Atom  20C    basis set group =>   1
Atom  21C    basis set group =>   1
Atom  22C    basis set group =>   1
Atom  23C    basis set group =>   1
Atom  24H    basis set group =>   2
Atom  25H    basis set group =>   2
Atom  26H    basis set group =>   2
Atom  27H    basis set group =>   2
Atom  28H    basis set group =>   2
Atom  29H    basis set group =>   2
Atom  30H    basis set group =>   2
Atom  31H    basis set group =>   2
Atom  32H    basis set group =>   2
Atom  33H    basis set group =>   2
Atom  34H    basis set group =>   2
Atom  35H    basis set group =>   2
Atom  36H    basis set group =>   2
Atom  37H    basis set group =>   2
---------------------------------
AUXILIARY/C BASIS SET INFORMATION
---------------------------------
There are 2 groups of distinct atoms

 Group   1 Type C   : 9s8p7d5f3g1h contracted to 9s8p7d5f3g1h pattern {111111111/11111111/1111111/11111/111/1}
 Group   2 Type H   : 6s4p3d2f1g contracted to 6s4p3d2f1g pattern {111111/1111/111/11/1}

Atom   0C    basis set group =>   1
Atom   1C    basis set group =>   1
Atom   2C    basis set group =>   1
Atom   3C    basis set group =>   1
Atom   4C    basis set group =>   1
Atom   5C    basis set group =>   1
Atom   6C    basis set group =>   1
Atom   7C    basis set group =>   1
Atom   8C    basis set group =>   1
Atom   9C    basis set group =>   1
Atom  10C    basis set group =>   1
Atom  11C    basis set group =>   1
Atom  12C    basis set group =>   1
Atom  13C    basis set group =>   1
Atom  14C    basis set group =>   1
Atom  15C    basis set group =>   1
Atom  16C    basis set group =>   1
Atom  17C    basis set group =>   1
Atom  18C    basis set group =>   1
Atom  19C    basis set group =>   1
Atom  20C    basis set group =>   1
Atom  21C    basis set group =>   1
Atom  22C    basis set group =>   1
Atom  23C    basis set group =>   1
Atom  24H    basis set group =>   2
Atom  25H    basis set group =>   2
Atom  26H    basis set group =>   2
Atom  27H    basis set group =>   2
Atom  28H    basis set group =>   2
Atom  29H    basis set group =>   2
Atom  30H    basis set group =>   2
Atom  31H    basis set group =>   2
Atom  32H    basis set group =>   2
Atom  33H    basis set group =>   2
Atom  34H    basis set group =>   2
Atom  35H    basis set group =>   2
Atom  36H    basis set group =>   2
Atom  37H    basis set group =>   2


           ************************************************************
           *        Program running with 104 parallel MPI-processes   *
           *              working on a common directory               *
           ************************************************************
------------------------------------------------------------------------------
                             ORCA STARTUP CALCULATIONS
                           -- RI-GTO INTEGRALS CHOSEN --
------------------------------------------------------------------------------
------------------------------------------------------------------------------
                   ___                                                        
                  /   \      - P O W E R E D   B Y -                         
                 /     \                                                     
                 |  |  |   _    _      __       _____    __    __             
                 |  |  |  | |  | |    /  \     |  _  \  |  |  /  |          
                  \  \/   | |  | |   /    \    | | | |  |  | /  /          
                 / \  \   | |__| |  /  /\  \   | |_| |  |  |/  /          
                |  |  |   |  __  | /  /__\  \  |    /   |      \           
                |  |  |   | |  | | |   __   |  |    \   |  |\   \          
                \     /   | |  | | |  |  |  |  | |\  \  |  | \   \       
                 \___/    |_|  |_| |__|  |__|  |_| \__\ |__|  \__/        
                                                                              
                      - O R C A' S   B I G   F R I E N D -                    
                                      &                                       
                       - I N T E G R A L  F E E D E R -                       
                                                                              
 v1 FN, 2020, v2 2021, v3 2022-2024                                           
------------------------------------------------------------------------------


----------------------
SHARK INTEGRAL PACKAGE
----------------------

Number of atoms                             ...     38
Number of basis functions                   ...   1788
Number of shells                            ...    548
Maximum angular momentum                    ...      4
Integral batch strategy                     ... SHARK/LIBINT Hybrid
RI-J (if used) integral strategy            ... SPLIT-RIJ (Revised 2003 algorithm where possible)
Printlevel                                  ...      1
Contraction scheme used                     ... SEGMENTED contraction
Prescreening option                         ... SCHWARTZ
   Thresh                                   ... 1.000e-10
   Tcut                                     ... 1.000e-11
   Tpresel                                  ... 1.000e-11 
Coulomb Range Separation                    ... NOT USED
Exchange Range Separation                   ... NOT USED
Multipole approximations                    ... NOT USED
Finite Nucleus Model                        ... NOT USED
CABS basis                                  ... NOT available
Auxiliary Coulomb fitting basis             ... AVAILABLE
   # of basis functions in Aux-J            ...   1330
   # of shells in Aux-J                     ...    430
   Maximum angular momentum in Aux-J        ...      4
Auxiliary J/K fitting basis                 ... NOT available
Auxiliary Correlation fitting basis         ... AVAILABLE
   # of basis functions in Aux-C            ...   4168
   # of shells in Aux-C                     ...   1016
   Maximum angular momentum in Aux-C        ...      5
Auxiliary 'external' fitting basis          ... NOT available

Checking pre-screening integrals            ... done (  0.0 sec) Dimension = 548
Check shell pair data                       ... done (  0.0 sec)
Shell pair information
Shell pair cut-off parameter TPreSel        ...   1.0e-11
Total number of shell pairs                 ...    150426
Shell pairs after pre-screening             ...     90538
Total number of primitive shell pairs       ...    386901
Primitive shell pairs kept                  ...    160968
          la=0 lb=0:  13799 shell pairs
          la=1 lb=0:  20315 shell pairs
          la=1 lb=1:   7067 shell pairs
          la=2 lb=0:  12437 shell pairs
          la=2 lb=1:   9187 shell pairs
          la=2 lb=2:   2969 shell pairs
          la=3 lb=0:   7449 shell pairs
          la=3 lb=1:   5487 shell pairs
          la=3 lb=2:   3373 shell pairs
          la=3 lb=3:   1023 shell pairs
          la=4 lb=0:   2938 shell pairs
          la=4 lb=1:   2180 shell pairs
          la=4 lb=2:   1340 shell pairs
          la=4 lb=3:    798 shell pairs
          la=4 lb=4:    176 shell pairs

Calculating one electron integrals          ... done (  0.4 sec)
Calculating RI/J V-Matrix + Cholesky decomp.... done (  0.3 sec)
Calculating RI/C V-Matrix + Cholesky decomp.... done (  1.0 sec)
Calculating Nuclear repulsion               ... done (  0.0 sec) ENN=   1810.113847286342 Eh

Diagonalization of the overlap matrix:
Smallest eigenvalue                        ... 2.038e-07
Time for diagonalization                   ...    0.552 sec
Threshold for overlap eigenvalues          ... 1.000e-07
Number of eigenvalues below threshold      ... 0

IMPORTANT:
Smallest eigenvalue of S below the DiffSThresh (1.000e-06) while
Thresh>1e-12 and/or TCut>1e-13! In order to avoid SCF convergence issues,
Thresh will be set to at least 1e-12 and TCut to at least 1e-13.
This can be turned off by adding %SCF DiffSThresh -1 END to the input.

Time for construction of square roots      ...    0.364 sec
Total time needed                          ...    0.966 sec

-------------------
DFT GRID GENERATION
-------------------

General Integration Accuracy     IntAcc      ... 4.959
Radial Grid Type                 RadialGrid  ... OptM3 with GC (2021)
Angular Grid (max. ang.)         AngularGrid ... 6 (Lebedev-590)
Angular grid pruning method      GridPruning ... 4 (adaptive)
Weight generation scheme         WeightScheme... mBecke (2022)
Basis function cutoff            BFCut       ... 1.0000e-10
Integration weight cutoff        WCut        ... 1.0000e-14
Partially contracted basis set               ... off
Rotationally invariant grid construction     ... off
Angular grids for H and He will be reduced by one unit
Diffuse basis detected: some atoms will have their outermost
                        angular grid increased by 1.

Total number of grid points                  ...   467489
Total number of batches                      ...     7322
Average number of points per batch           ...       63
Average number of grid points per atom       ...    12302

--------------------
COSX GRID GENERATION
--------------------

GRIDX 1
-------
General Integration Accuracy     IntAcc      ... 4.020
Radial Grid Type                 RadialGrid  ... OptM3 with GC (2021)
Angular Grid (max. ang.)         AngularGrid ... 2 (Lebedev-110)
Angular grid pruning method      GridPruning ... 4 (adaptive)
Weight generation scheme         WeightScheme... mBecke (2022)
Basis function cutoff            BFCut       ... 1.0000e-10
Integration weight cutoff        WCut        ... 1.0000e-14
Partially contracted basis set               ... on
Rotationally invariant grid construction     ... off
Angular grids for H and He will be reduced by one unit
Diffuse basis detected: some atoms will have their outermost
                        angular grid increased by 1.

Total number of grid points                  ...    57826
Total number of batches                      ...      469
Average number of points per batch           ...      123
Average number of grid points per atom       ...     1522
UseSFitting                                  ... on

GRIDX 2
-------
General Integration Accuracy     IntAcc      ... 4.338
Radial Grid Type                 RadialGrid  ... OptM3 with GC (2021)
Angular Grid (max. ang.)         AngularGrid ... 3 (Lebedev-194)
Angular grid pruning method      GridPruning ... 4 (adaptive)
Weight generation scheme         WeightScheme... mBecke (2022)
Basis function cutoff            BFCut       ... 1.0000e-10
Integration weight cutoff        WCut        ... 1.0000e-14
Partially contracted basis set               ... on
Rotationally invariant grid construction     ... off
Angular grids for H and He will be reduced by one unit
Diffuse basis detected: some atoms will have their outermost
                        angular grid increased by 1.

Total number of grid points                  ...   125045
Total number of batches                      ...      997
Average number of points per batch           ...      125
Average number of grid points per atom       ...     3291
UseSFitting                                  ... on

GRIDX 3
-------
General Integration Accuracy     IntAcc      ... 4.871
Radial Grid Type                 RadialGrid  ... OptM3 with GC (2021)
Angular Grid (max. ang.)         AngularGrid ... 4 (Lebedev-302)
Angular grid pruning method      GridPruning ... 4 (adaptive)
Weight generation scheme         WeightScheme... mBecke (2022)
Basis function cutoff            BFCut       ... 1.0000e-10
Integration weight cutoff        WCut        ... 1.0000e-14
Partially contracted basis set               ... on
Rotationally invariant grid construction     ... off
Angular grids for H and He will be reduced by one unit
Diffuse basis detected: some atoms will have their outermost
                        angular grid increased by 1.

Total number of grid points                  ...   227931
Total number of batches                      ...     1797
Average number of points per batch           ...      126
Average number of grid points per atom       ...     5998
UseSFitting                                  ... on
Initializing property integral containers    ... done (  0.0 sec)

SHARK setup successfully completed in  15.2 seconds

Maximum memory used throughout the entire STARTUP-calculation: 220.8 MB


           ************************************************************
           *        Program running with 104 parallel MPI-processes   *
           *              working on a common directory               *
           ************************************************************
-------------------------------------------------------------------------------
                                 ORCA GUESS
                   Start orbitals & Density for SCF / CASSCF
-------------------------------------------------------------------------------

------------
SCF SETTINGS
------------
Hamiltonian:
 Density Functional     Method          .... DFT(GTOs)
 Exchange Functional    Exchange        .... PBE
   PBE kappa parameter   XKappa         ....  0.804000
   PBE mue parameter    XMuePBE         ....  0.219520
 Correlation Functional Correlation     .... P86
 LDA part of GGA corr.  LDAOpt          .... VWN-5
 Gradients option       PostSCFGGA      .... off
 Hybrid DFT is turned on
   Fraction HF Exchange ScalHFX         ....  0.690000
   Scaling of DF-GGA-X  ScalDFX         ....  0.310000
   Scaling of DF-GGA-C  ScalDFC         ....  0.403800
   Scaling of DF-LDA-C  ScalLDAC        ....  0.403800
   Perturbative correction              ....  1.000000
 RI-approximation to the Coulomb term is turned on
   Number of AuxJ basis functions       .... 1330
   RIJ-COSX (HFX calculated with COS-X)).... on


General Settings:
 Integral files         IntName         .... compas3x_hc_c24h14_0pent_14_qz_ri
 Hartree-Fock type      HFTyp           .... RHF
 Total Charge           Charge          ....    0
 Multiplicity           Mult            ....    1
 Number of Electrons    NEL             ....  158
 Basis Dimension        Dim             .... 1788
 Nuclear Repulsion      ENuc            ....   1810.1138472863 Eh

Convergence Acceleration:
 AO-DIIS                CNVDIIS         .... on
   Start iteration      DIISMaxIt       ....    12
   Startup error        DIISStart       ....  0.200000
   # of expansion vecs  DIISMaxEq       ....     5
   Bias factor          DIISBfac        ....   1.050
   Max. coefficient     DIISMaxC        ....  10.000
 MO-DIIS                CNVKDIIS        .... off
 Trust-Rad. Augm. Hess. CNVTRAH         .... auto
   Auto Start mean grad. ratio tolernc. ....  1.125000
   Auto Start start iteration           ....    50
   Auto Start num. interpolation iter.  ....    10
   Max. Number of Micro iterations      ....    24
   Max. Number of Macro iterations      .... Maxiter - #DIIS iter
   Number of Davidson start vectors     ....     2
   Converg. threshold    (grad. norm)   ....   5.000e-05
   Grad. Scal. Fac. for Micro threshold ....   0.100
   Minimum threshold for Micro iter.    ....   1.000e-02
   NR start threshold (gradient norm)   ....   1.000e-04
   Initial trust radius                 ....   0.400
   Minimum AH scaling param. (alpha)    ....   1.000
   Maximum AH scaling param. (alpha)    .... 1000.000
   Quad. conv. algorithm                .... NR
   White noise on init. David. guess    .... on
   Maximum white noise                  ....   0.010
   Pseudo random numbers                .... off
   Inactive MOs                         .... canonical
   Orbital update algorithm             .... Taylor
   Preconditioner                       .... Diag
   Full preconditioner red. dimension   ....   250
 SOSCF                  CNVSOSCF        .... on
   Start iteration      SOSCFMaxIt      ....   150
   Startup grad/error   SOSCFStart      ....  0.003300
   Hessian update       SOSCFHessUp     .... L-BFGS
 Level Shifting         CNVShift        .... on
   Level shift para.    LevelShift      ....    0.2500
   Turn off err/grad.   ShiftErr        ....    0.0010
 Zerner damping         CNVZerner       .... off
 Static damping         CNVDamp         .... on
   Fraction old density DampFac         ....    0.7000
   Max. Damping (<1)    DampMax         ....    0.9800
   Min. Damping (>=0)   DampMin         ....    0.0000
   Turn off err/grad.   DampErr         ....    0.1000

SCF Procedure:
 Maximum # iterations   MaxIter         ....   125
 SCF integral mode      SCFMode         .... Direct
   Integral package                     .... SHARK and LIBINT hybrid scheme
 Reset frequency        DirectResetFreq ....    20
 Integral Threshold     Thresh          ....  1.000e-12 Eh
 Primitive CutOff       TCut            ....  1.000e-13 Eh

Convergence Tolerance:
 Convergence Check Mode ConvCheckMode   .... Total+1el-Energy
 Convergence forced     ConvForced      .... 0
 Energy Change          TolE            ....  1.000e-06 Eh
 1-El. energy change                    ....  1.000e-03 Eh
 Orbital Gradient       TolG            ....  5.000e-05
 Orbital Rotation angle TolX            ....  5.000e-05
 DIIS Error             TolErr          ....  1.000e-06

------------------------------
INITIAL GUESS: MODEL POTENTIAL
------------------------------
Loading Hartree-Fock densities                     ... done
Calculating cut-offs                               ... done
Initializing the effective Hamiltonian             ... done
Setting up the integral package (SHARK)            ... done
Starting the Coulomb interaction                   ... done (   0.5 sec)
Making the grid                                    ... done (   8.3 sec)
Mapping shells                                     ... done
Starting the XC term evaluation                    ... done (   1.2 sec)
  promolecular density results
     # of electrons  =    157.985834753
     EX              =   -127.048971364
     EC              =      0.198786064
     EX+EC           =   -126.850185301
Transforming the Hamiltonian                       ... done (   0.3 sec)
Diagonalizing the Hamiltonian                      ... done (   0.4 sec)
Back transforming the eigenvectors                 ... done (   0.1 sec)
Now organizing SCF variables                       ... done
                      ------------------
                      INITIAL GUESS DONE (  11.2 sec)
                      ------------------
             **** ENERGY FILE WAS UPDATED (compas3x_hc_c24h14_0pent_14_qz_ri.en.tmp) ****
Finished Guess after  27.2 sec
Maximum memory used throughout the entire GUESS-calculation: 199.6 MB


           ************************************************************
           *        Program running with 104 parallel MPI-processes   *
           *              working on a common directory               *
           ************************************************************

-------------------------------------------------------------------------------------------
                                      ORCA LEAN-SCF
                              memory conserving SCF solver
-------------------------------------------------------------------------------------------

----------------------------------------D-I-I-S--------------------------------------------
Iteration    Energy (Eh)           Delta-E    RMSDP     MaxDP     DIISErr   Damp  Time(sec)
-------------------------------------------------------------------------------------------
               ***  Starting incremental Fock matrix formation  ***
    1    -919.0412439559561335     0.00e+00  1.23e-03  3.12e-01  1.55e-01  0.700  12.5
    2    -919.2280165988597673    -1.87e-01  1.32e-03  3.37e-01  9.50e-02  0.700   9.3
                               ***Turning on AO-DIIS***
    3    -919.3387680600897056    -1.11e-01  2.39e-04  2.81e-02  5.77e-02  0.700   8.3
    4    -919.4080134745420310    -6.92e-02  1.24e-03  2.97e-01  3.99e-02  0.000   8.2
    5    -919.5595399964429362    -1.52e-01  4.55e-04  1.17e-01  4.26e-03  0.000   8.4
                              *** Initializing SOSCF ***
---------------------------------------S-O-S-C-F--------------------------------------
Iteration    Energy (Eh)           Delta-E    RMSDP     MaxDP     MaxGrad    Time(sec)
--------------------------------------------------------------------------------------
    6    -919.5598454551507075    -3.05e-04  1.96e-04  5.04e-02  1.36e-03     9.1
               *** Restarting incremental Fock matrix formation ***
    7    -919.5599011103697649    -5.57e-05  2.47e-04  5.72e-02  7.18e-04    11.8
    8    -919.5599331097839695    -3.20e-05  1.42e-04  3.28e-02  5.14e-04    10.2
    9    -919.5599409758895035    -7.87e-06  8.22e-05  1.41e-02  3.25e-04    10.1
   10    -919.5599446759208604    -3.70e-06  1.79e-05  4.30e-03  3.08e-05    10.0
   11    -919.5599447115839666    -3.57e-08  6.03e-06  1.28e-03  2.41e-05     9.5
                 **** Energy Check signals convergence ****

               *****************************************************
               *                     SUCCESS                       *
               *           SCF CONVERGED AFTER  11 CYCLES          *
               *****************************************************

Recomputing exchange energy using gridx3       ... done (   13.556 sec)
Old exchange energy                            :    -89.558586389 Eh
New exchange energy                            :    -89.558585465 Eh
Exchange energy change after final integration :      0.000000924 Eh
Total energy after final integration           :   -919.559943787 Eh
             **** ENERGY FILE WAS UPDATED (compas3x_hc_c24h14_0pent_14_qz_ri.en.tmp) ****

----------------
TOTAL SCF ENERGY
----------------

Total Energy       :       -919.55994378733760 Eh          -25022.49819 eV

Components:
Nuclear Repulsion  :       1810.11384728634152 Eh           49255.70190 eV
Electronic Energy  :      -2729.67379199792549 Eh          -74278.20011 eV
One Electron Energy:      -4840.75502023726949 Eh         -131723.64080 eV
Two Electron Energy:       2111.08122823934400 Eh           57445.44069 eV

Virial components:
Potential Energy   :      -1837.11004448351287 Eh          -49990.30577 eV
Kinetic Energy     :        917.55010069617526 Eh           24967.80758 eV
Virial Ratio       :          2.00219044506631

DFT components:
N(Alpha)           :       78.999997241949 electrons
N(Beta)            :       78.999997241949 electrons
N(Total)           :      157.999994483898 electrons
E(X)               :      -40.064383276714 Eh       
E(C)               :       -2.354714456833 Eh       
E(XC)              :      -42.419097733546 Eh       

---------------
SCF CONVERGENCE
---------------

  Last Energy change         ...    3.5663e-08  Tolerance :   1.0000e-06
  Last MAX-Density change    ...    1.2757e-03  Tolerance :   1.0000e-05
  Last RMS-Density change    ...    6.0329e-06  Tolerance :   1.0000e-06
  Last DIIS Error            ...    1.3646e-03  Tolerance :   1.0000e-06
  Last Orbital Gradient      ...    2.4136e-05  Tolerance :   5.0000e-05
  Last Orbital Rotation      ...    6.0743e-05  Tolerance :   5.0000e-05


----------------
ORBITAL ENERGIES
----------------

  NO   OCC          E(Eh)            E(eV) 
   0   2.0000     -10.836188      -294.8677 
   1   2.0000     -10.835805      -294.8573 
   2   2.0000     -10.835665      -294.8534 
   3   2.0000     -10.835318      -294.8440 
   4   2.0000     -10.835021      -294.8359 
   5   2.0000     -10.834559      -294.8233 
   6   2.0000     -10.833115      -294.7840 
   7   2.0000     -10.832561      -294.7690 
   8   2.0000     -10.830972      -294.7257 
   9   2.0000     -10.830125      -294.7027 
  10   2.0000     -10.822562      -294.4969 
  11   2.0000     -10.822338      -294.4908 
  12   2.0000     -10.822227      -294.4878 
  13   2.0000     -10.821977      -294.4810 
  14   2.0000     -10.821794      -294.4760 
  15   2.0000     -10.821472      -294.4672 
  16   2.0000     -10.821334      -294.4635 
  17   2.0000     -10.821312      -294.4629 
  18   2.0000     -10.821096      -294.4570 
  19   2.0000     -10.820669      -294.4454 
  20   2.0000     -10.820645      -294.4447 
  21   2.0000     -10.820492      -294.4405 
  22   2.0000     -10.820419      -294.4386 
  23   2.0000     -10.820145      -294.4311 
  24   2.0000      -1.096631       -29.8409 
  25   2.0000      -1.071150       -29.1475 
  26   2.0000      -1.044261       -28.4158 
  27   2.0000      -1.021917       -27.8078 
  28   2.0000      -0.998840       -27.1798 
  29   2.0000      -0.978371       -26.6228 
  30   2.0000      -0.946621       -25.7589 
  31   2.0000      -0.924138       -25.1471 
  32   2.0000      -0.920843       -25.0574 
  33   2.0000      -0.912921       -24.8418 
  34   2.0000      -0.891943       -24.2710 
  35   2.0000      -0.858981       -23.3741 
  36   2.0000      -0.796951       -21.6861 
  37   2.0000      -0.791506       -21.5380 
  38   2.0000      -0.778770       -21.1914 
  39   2.0000      -0.762688       -20.7538 
  40   2.0000      -0.744160       -20.2496 
  41   2.0000      -0.732473       -19.9316 
  42   2.0000      -0.694324       -18.8935 
  43   2.0000      -0.667665       -18.1681 
  44   2.0000      -0.663349       -18.0507 
  45   2.0000      -0.635133       -17.2829 
  46   2.0000      -0.629778       -17.1371 
  47   2.0000      -0.616879       -16.7861 
  48   2.0000      -0.600125       -16.3302 
  49   2.0000      -0.594911       -16.1883 
  50   2.0000      -0.582900       -15.8615 
  51   2.0000      -0.561133       -15.2692 
  52   2.0000      -0.549828       -14.9616 
  53   2.0000      -0.543103       -14.7786 
  54   2.0000      -0.536419       -14.5967 
  55   2.0000      -0.532118       -14.4797 
  56   2.0000      -0.526906       -14.3378 
  57   2.0000      -0.521417       -14.1885 
  58   2.0000      -0.512506       -13.9460 
  59   2.0000      -0.510986       -13.9046 
  60   2.0000      -0.492036       -13.3890 
  61   2.0000      -0.488893       -13.3035 
  62   2.0000      -0.475302       -12.9336 
  63   2.0000      -0.470682       -12.8079 
  64   2.0000      -0.465538       -12.6679 
  65   2.0000      -0.455164       -12.3856 
  66   2.0000      -0.449233       -12.2243 
  67   2.0000      -0.435805       -11.8589 
  68   2.0000      -0.428012       -11.6468 
  69   2.0000      -0.414193       -11.2708 
  70   2.0000      -0.408833       -11.1249 
  71   2.0000      -0.400753       -10.9050 
  72   2.0000      -0.374340       -10.1863 
  73   2.0000      -0.342552        -9.3213 
  74   2.0000      -0.311966        -8.4890 
  75   2.0000      -0.304776        -8.2934 
  76   2.0000      -0.302104        -8.2207 
  77   2.0000      -0.274251        -7.4627 
  78   2.0000      -0.225149        -6.1266 
  79   0.0000      -0.014821        -0.4033 
  80   0.0000       0.023063         0.6276 
  81   0.0000       0.050304         1.3689 
  82   0.0000       0.059716         1.6250 
  83   0.0000       0.067088         1.8256 
  84   0.0000       0.074017         2.0141 
  85   0.0000       0.079429         2.1614 
  86   0.0000       0.080648         2.1945 
  87   0.0000       0.087330         2.3764 
  88   0.0000       0.091946         2.5020 
  89   0.0000       0.091988         2.5031 
*Only the first 10 virtual orbitals were printed.
-------
TIMINGS
-------

Total SCF time: 0 days 0 hours 2 min 17 sec 

Total time                  ....     137.812 sec
Sum of individual times     ....     137.649 sec  ( 99.9%)

SCF preparation             ....      15.151 sec  ( 11.0%)
Fock matrix formation       ....     100.393 sec  ( 72.8%)
  Startup                   ....       1.445 sec  (  1.4% of F)
  Split-RI-J                ....       6.868 sec  (  6.8% of F)
  Chain of spheres X        ....      77.941 sec  ( 77.6% of F)
  XC integration            ....      10.489 sec  ( 10.4% of F)
    XC Preparation          ....       0.000 sec  (  0.0% of XC)
    Basis function eval.    ....       0.891 sec  (  8.5% of XC)
    Density eval.           ....       1.966 sec  ( 18.7% of XC)
    XC-Functional eval.     ....       0.029 sec  (  0.3% of XC)
    XC-Potential eval.      ....       1.949 sec  ( 18.6% of XC)
Diagonalization             ....       0.000 sec  (  0.0%)
Density matrix formation    ....       3.261 sec  (  2.4%)
Total Energy calculation    ....       1.733 sec  (  1.3%)
Population analysis         ....       0.000 sec  (  0.0%)
Orbital Transformation      ....       2.288 sec  (  1.7%)
Orbital Orthonormalization  ....       0.000 sec  (  0.0%)
DIIS solution               ....      10.139 sec  (  7.4%)
SOSCF solution              ....       4.586 sec  (  3.3%)
Finished LeanSCF after 138.7 sec

Maximum memory used throughout the entire LEANSCF-calculation: 345.4 MB


           ************************************************************
           *        Program running with 104 parallel MPI-processes   *
           *              working on a common directory               *
           ************************************************************

------------------------------------------------------------------------------
                                ORCA  MP2 
------------------------------------------------------------------------------


-------------
RI-MP2 ENERGY
-------------
Dimension of the orbital basis            ... 1788
Dimension of the AuxC basis               ... 4168
Memory devoted to MP2                     ... 4096 MB   
Data format for matrix containers         ... DOUBLE
Compression type for matrix containers    ... UNCOMPRESSED
Scaling for aa/bb pairs                   ...   5.710e-02
Scaling for ab pairs                      ...   5.979e-01
Overall scaling of the MP2 energy         ...   1.000e+00

-----------------------
SHARK RI TRANSFORMATION
-----------------------

Number of basis functions                ...   1788
Number of aux functions                  ...   4168
Number of operators                      ...      1
Generation of IJK                        ... NO
Generation of IAK                        ... YES
Generation of ABK                        ... NO
Orbital Range Operator  0:    0-  78 to   79-1787

Aux basis identifier                     ...   AUXC
Contraction scheme used                  ... SEGMENTED
Do orthogonalization                     ... YES
All operator combinations                ... NO
Transpose (ia|K)                         ... NO
Integral generator used                  ... LIBINT
Starting integral generation + trafo... 
Half trafo (segmented) done. Total time =  4.8 sec. integrals=  1.4 sec trafo=  3.0 sec
Integral generation and half transformation done (  4.8 sec)

Reading or making V^(-1/2)          ... done (  0.3 sec)
Sorting IAK integrals               ... done (  5.8 sec)

SHARK RI integral transformation done. Total time = 11.0 sec.

Opening buffers                              ... done

Starting loop over batches of integrals:

Operator 0  - window                       ... (  0- 78)x( 79-1787)
Operator 0  - Memory available             ...  4096 MB
Operator 0  - Memory needed per MO         ...  54.3 MB
Operator 0  - Number of orbitals per batch ... 1
Operator 0  - Number of batches            ... 1

OPERATOR  0   PASS   0:  MOs     0 ...    0 +    1 ...    1 +    2 ...    2 +    3 ...    3
                            +    4 ...    4 +    5 ...    5 +    6 ...    6 +    7 ...    7
                            +    8 ...    8 +    9 ...    9 +   10 ...   10 +   11 ...   11
                            +   12 ...   12 +   13 ...   13 +   14 ...   14 +   15 ...   15
                            +   16 ...   16 +   17 ...   17 +   18 ...   18 +   19 ...   19
                            +   20 ...   20 +   21 ...   21 +   22 ...   22 +   23 ...   23
                            +   24 ...   24 +   25 ...   25 +   26 ...   26 +   27 ...   27
                            +   28 ...   28 +   29 ...   29 +   30 ...   30 +   31 ...   31
                            +   32 ...   32 +   33 ...   33 +   34 ...   34 +   35 ...   35
                            +   36 ...   36 +   37 ...   37 +   38 ...   38 +   39 ...   39
                            +   40 ...   40 +   41 ...   41 +   42 ...   42 +   43 ...   43
                            +   44 ...   44 +   45 ...   45 +   46 ...   46 +   47 ...   47
                            +   48 ...   48 +   49 ...   49 +   50 ...   50 +   51 ...   51
                            +   52 ...   52 +   53 ...   53 +   54 ...   54 +   55 ...   55
                            +   56 ...   56 +   57 ...   57 +   58 ...   58 +   59 ...   59
                            +   60 ...   60 +   61 ...   61 +   62 ...   62 +   63 ...   63
                            +   64 ...   64 +   65 ...   65 +   66 ...   66 +   67 ...   67
                            +   68 ...   68 +   69 ...   69 +   70 ...   70 +   71 ...   71
                            +   72 ...   72 +   73 ...   73 +   74 ...   74 +   75 ...   75
                            +   76 ...   76 +   77 ...   77 +   78 ...   78
  Reading integrals       ... ok
Time spent in pair loops =    38.909 sec

-----------------------------------------------
 RI-MP2 CORRELATION ENERGY:     -2.365401304 Eh
-----------------------------------------------


-------
TIMINGS
-------

Total time                :   52.804 sec
Integral trafo            :   11.286 sec ( 21.4%)
I/O of integrals          :    0.051 sec (  0.1%)
K(i,j) operators          :    0.432 sec (  0.8%)
T(i,j) pair energies      :    0.124 sec (  0.2%)
V**(-1/2)                 :    2.607 sec (  4.9%)


---------------------------------------
MP2 TOTAL ENERGY:     -921.925345091 Eh
---------------------------------------

Maximum memory used throughout the entire MP2-calculation: 401.8 MB


-------------------------------------------------------------------------------
                          DFT DISPERSION CORRECTION                            
                                                                               
                                DFTD4 V3.4.0                                   
-------------------------------------------------------------------------------
The REV-DSD-PBEP86-2021 functional is recognized
A user input s6-coefficient scaling factor has been recognized
A user input a1-coefficient scaling factor has been recognized
A user input s8-coefficient scaling factor has been recognized
A user input a2-coefficient scaling factor has been recognized
A user input s9-coefficient scaling factor has been recognized
Active option DFTDOPT                   ...         5   

-------------------------   ----------------
Dispersion correction           -0.038489184
-------------------------   ----------------


-------------------------   --------------------
FINAL SINGLE POINT ENERGY      -921.963834275206
-------------------------   --------------------



           ************************************************************
           *        Program running with 104 parallel MPI-processes   *
           *              working on a common directory               *
           ************************************************************

------------------------------------------------------------------------------
                              ORCA PROPERTY CALCULATIONS
------------------------------------------------------------------------------

GBWName                                 ... compas3x_hc_c24h14_0pent_14_qz_ri.gbw
Number of atoms                         ...     38
Number of basis functions               ...   1788
Max core memory                         ...   1024 MB

Electric properties:
Dipole moment                           ... YES
Quadrupole moment                       ...  NO
Static polarizability (Dipole/Dipole)   ...  NO
Static polarizability (Dipole/Quad.)    ...  NO
Static polarizability (Quad./Quad.)     ...  NO
Static polarizability (Velocity)        ...  NO

Atomic electric properties:
Dipole moment                           ...  NO
Quadrupole moment                       ...  NO
Static polarizability                   ...  NO

Choice of electric origin               ... Center of mass
Position of electric origin             ...    -0.040900     0.065781     0.004422

General magnetic properties:
Magnetizability                         ...  NO

EPR properties:
g-Tensor (aka g-matrix)                 ...  NO
Zero-Field splitting spin-orbit         ...  NO
Zero-field splitting spin-spin          ...  NO
Hyperfine couplings                     ...  NO (   0 nuclei)
Quadrupole couplings                    ...  NO (   0 nuclei)
Contact density                         ...  NO (   0 nuclei)

NMR properties:
Chemical shifts                         ...  NO (   0 nuclei)
Spin-rotation constants                 ...  NO (   0 nuclei)
Spin-spin couplings                     ...  NO (   0 nuclei,    0 pairs)

Choice of magnetic origin               ... GIAO
Position of magnetic origin             ...     0.000000     0.000000     0.000000

Properties with geometric perturbations:
SCF Hessian                             ...  NO
IR spectrum                             ...  NO
VCD spectrum                            ...  NO
X-ray spectroscopy properties:
SCF XES/XAS/RIXS spectra                ...  NO


-------------
DIPOLE MOMENT
-------------

Method             : SCF
Type of density    : Electron Density
Multiplicity       :   1
Irrep              :   0
Energy             :  -919.5599437873376019 Eh
Relativity type    : 
Basis              : AO
                                X                 Y                 Z
Electronic contribution:     -0.843754942       1.344903925       0.091958762
Nuclear contribution   :      0.842283743      -1.355699878      -0.092096862
                        -----------------------------------------
Total Dipole Moment    :     -0.001471199      -0.010795953      -0.000138100
                        -----------------------------------------
Magnitude (a.u.)       :      0.010896609
Magnitude (Debye)      :      0.027696980



--------------------
Rotational spectrum 
--------------------
 
Rotational constants in cm-1:             0.016858             0.006208             0.004557 
Rotational constants in MHz :           505.404476           186.119554           136.629833 

Dipole components along the rotational axes: 
x,y,z [a.u.] :    -0.009936     0.004472    -0.000144 
x,y,z [Debye]:    -0.025254     0.011367    -0.000366 

 

Dipole moment calculation done in   0.2 sec 

Maximum memory used throughout the entire PROP-calculation: 219.6 MB

--------------------------------
SUGGESTED CITATIONS FOR THIS RUN
--------------------------------

Below you find a list of papers that are relevant to this ORCA run
We neither can nor want to force you to cite these papers, but we appreciate if you do
You receive ORCA, which is the product of decades of hard work by many enthusiastic individuals, for free
The only thing we kindly ask in return is that you cite our papers,
We deeply appreciate it, if you show your appreciation for ORCA by not just citing the generic ORCA reference.

Please note that relegating all ORCA citations to the supporting information does *not* help us.
SI sections are not indexed - citations you put there will not count into any citation statistics
But we need these citations in order to attract the funding resources that allow us to do what we are doing

Therefore, if you are a happy ORCA user, please consider citing a few of the papers listed below in the main body of your paper

In addition to the list printed below, the program has created the file compas3x_hc_c24h14_0pent_14_qz_ri.bibtex that contains the list in bibtex format
You can import this file easily into all common literature databanks and citation aid programs


List of essential papers. We consider these as the minimum necessary citations

  1. Neese,F.
     Software update: the ORCA program system, version 5.0
     WIRES Comput. Molec. Sci., 2022 12(1)e1606
     doi.org/10.1002/wcms.1606

List of papers to cite with high priority. The work reported in these papers was absolutely
necessary for this run to complete.
Our perspective: the developers of density functionals and basis sets usually get cited in chemistry papers
Good! But without the algorithms to do something with them, the functionals or basis sets would not do anything.
Hence, in our opinion, the algorithm design and method developments papers are equally worthy of getting cited

  1. Neese,F.
     An improvement of the resolution of the identity approximation for the formation of the Coulomb matrix
     J. Comp. Chem., 2003 24(14)1740-1747
     doi.org/10.1002/jcc.10318
  2. Neese,F.; Wennmohs,F.; Hansen,A.; Becker,U.
     Efficient, approximate and parallel Hartree-Fock and hybrid DFT calculations. A 'chain-of-spheres' algorithm for the Hartree-Fock exchange
     Chem. Phys., 2009 356(1-3)98-109
     doi.org/10.1016/j.chemphys.2008.10.036
  3. Kossmann,S.; Neese,F.
     Efficient Structure Optimization with Second-Order Many-Body Perturbation Theory: The RIJCOSX-MP2 Method
     J. Theo. Comp. Chem., 2010 6 2325-2338
     doi.org/10.1021/ct100199k
  4. Helmich-Paris,B.; de Souza,B.; Neese,F.; Izsák,R.
     An improved chain of spheres for exchange algorithm
     J. Chem. Phys., 2021 155 104109
     doi.org/doi: 10.1063/5.0058766.
  5. Neese,F.
     The SHARK Integral Generation and Digestion System
     J. Comp. Chem., 2022  1-16
     doi.org/10.1002/jcc.26942
  6. Caldeweyher,E.; Bannwarth,C.; Grimme,S.
     Extension of the D3 dispersion coefficient model
     J. Chem. Phys., 2017 147 034112
     doi.org/10.1063/1.4993215
  7. Caldeweyher,E.; Ehlert,S.; Hansen,A.; Neugebauer,H.; Spicher,S.; Bannwarth,C.; Grimme,S.
     A generally applicable atomic-charge dependent London dispersion correction
     J. Chem. Phys., 2019 150 154122
     doi.org/10.1063/1.5090222
  8. Caldeweyher,E.; Mewes,J.; Ehlert,S.; Grimme,S.
     Extension and evaluation of the D4 London-dispersion model for periodic systems
     Phys. Chem. Chem. Phys., 2020 22(16)8499-8512
     doi.org/10.1039/D0CP00502A
  9. Wittmann,L.; Gordiy,I.; Friede,M.; Helmich-Paris,B.; Grimme,S.; Hansen,A.; Bursch,M.
     Extension of the D3 and D4 London Dispersion Corrections to the full Actinides Series
     Phys. Chem. Chem. Phys., 2024 26(32)21379-21394
     doi.org/https://doi.org/10.1039/D4CP01514B 

List of suggested additional citations. These are papers that are important in the 'surrounding' of 
of this run, or papers that preceded the highly important papers. If you like your results we are grateful for a citation.

  1. Izsak,R.; Neese,F.
     An overlap fitted chain of spheres exchange method
     J. Chem. Phys., 2011 135 144105
     doi.org/10.1063/1.3646921
  2. Izsak,R.; Hansen,A.; Neese,F.
     The resolution of identity and chain of spheres approximations for the LPNO-CCSD singles Fock term
     Molec. Phys., 2012 110 2413-2417
     doi.org/10.1080/00268976.2012.687466
  3. Neese,F.
     The ORCA program system
     WIRES Comput. Molec. Sci., 2012 2(1)73-78
     doi.org/10.1002/wcms.81
  4. Izsak,R.; Neese,F.; Klopper,W.
     Robust fitting techniques in the chain of spheres approximation to the Fock exchange: The role of the complementary space
     J. Chem. Phys., 2013 139 
     doi.org/10.1063/1.4819264
  5. Neese,F.
     Software update: the ORCA program system, version 4.0
     WIRES Comput. Molec. Sci., 2018 8(1)1-6
     doi.org/10.1002/wcms.1327
  6. Neese,F.; Wennmohs,F.; Becker,U.; Riplinger,C.
     The ORCA quantum chemistry program package
     J. Chem. Phys., 2020 152 Art. No. L224108
     doi.org/10.1063/5.0004608

List of optional additional citations

  1. Neese,F.
     Approximate second-order SCF convergence for spin unrestricted wavefunctions
     Chem. Phys. Lett., 2000 325(1-3)93-98
     doi.org/10.1016/s0009-2614(00)00662-x

Timings for individual modules:

Sum of individual times          ...      287.447 sec (=   4.791 min)
Startup calculation              ...       31.015 sec (=   0.517 min)  10.8 %
SCF iterations                   ...      169.410 sec (=   2.823 min)  58.9 %
Property calculations            ...       16.709 sec (=   0.278 min)   5.8 %
MP2 module                       ...       70.313 sec (=   1.172 min)  24.5 %
                             ****ORCA TERMINATED NORMALLY****
TOTAL RUN TIME: 0 days 0 hours 5 minutes 20 seconds 8 msec
