
                                 *****************
                                 * O   R   C   A *
                                 *****************

                                            #,                                       
                                            ###                                      
                                            ####                                     
                                            #####                                    
                                            ######                                   
                                           ########,                                 
                                     ,,################,,,,,                         
                               ,,#################################,,                 
                          ,,##########################################,,             
                       ,#########################################, ''#####,          
                    ,#############################################,,   '####,        
                  ,##################################################,,,,####,       
                ,###########''''           ''''###############################       
              ,#####''   ,,,,##########,,,,          '''####'''          '####       
            ,##' ,,,,###########################,,,                        '##       
           ' ,,###''''                  '''############,,,                           
         ,,##''                                '''############,,,,        ,,,,,,###''
      ,#''                                            '''#######################'''  
     '                                                          ''''####''''         
             ,#######,   #######,   ,#######,      ##                                
            ,#'     '#,  ##    ##  ,#'     '#,    #''#        ,####,   ,####,        
            ##       ##  ##   ,#'  ##            #'  '#       #'       #'  '#        
            ##       ##  #######   ##           ,######,      #####,   #    #        
            '#,     ,#'  ##    ##  '#,     ,#' ,#      #,     #,   #   #,  ,#        
             '#######'   ##     ##  '#######'  #'      '#     '####' # '####'        



                #########################################################
                #                        -***-                          #
                #          Department of theory and spectroscopy        #
                #                                                       #
                #                      Frank Neese                      #
                #                                                       #
                #     Directorship, Architecture, Infrastructure        #
                #                    SHARK, DRIVERS                     #
                #        Core code/Algorithms in most modules           #
                #                                                       #
                #        Max Planck Institute fuer Kohlenforschung      #
                #                Kaiser Wilhelm Platz 1                 #
                #                 D-45470 Muelheim/Ruhr                 #
                #                      Germany                          #
                #                                                       #
                #                  All rights reserved                  #
                #                        -***-                          #
                #########################################################


                         Program Version 6.0.1  -  RELEASE   -


 With contributions from (in alphabetic order):
[Max-Planck-Institut fuer Kohlenforschung]                               
  Daniel Aravena         : Magnetic Suceptibility                        
  Michael Atanasov       : Ab Initio Ligand Field Theory (pilot matlab implementation)
  Alexander A. Auer      : GIAO ZORA, VPT2 properties, NMR spectrum      
  Ute Becker             : All parallelization in ORCA, NUMFREQ, NUMCALC 
  Giovanni Bistoni       : ED, misc. LED, open-shell LED, HFLD           
  Martin Brehm           : Molecular dynamics                            
  Dmytro Bykov           : pre 5.0 version of the SCF Hessian            
  Marcos Casanova-Páez   : Triplet and SCS-CIS(D). UHF-(DLPNO)-IP/EA/STEOM-CCSD. UHF-CVS-IP/STEOM-CCSD   
  Vijay G. Chilkuri      : MRCI spin determinant printing, contributions to CSF-ICE 
  Pauline Colinet        : FMM embedding                                 
  Dipayan Datta          : RHF DLPNO-CCSD density                        
  Achintya Kumar Dutta   : EOM-CC, STEOM-CC                              
  Nicolas Foglia         : Exact transition moments, OPA infrastructure, MCD improvements    
  Dmitry Ganyushin       : Spin-Orbit,Spin-Spin,Magnetic field MRCI      
  Miquel Garcia-Rates    : C-PCM and meta-GGA Hessian, CCSD/C-PCM, Gaussian charge scheme 
  Tiago L. C. Gouveia    : GS-ROHF, GS-ROCIS                             
  Yang Guo               : DLPNO-NEVPT2, F12-NEVPT2, CIM, IAO-localization        
  Andreas Hansen         : Spin unrestricted coupled pair/coupled cluster methods 
  Ingolf Harden          : AUTO-CI MPn and infrastructure                
  Benjamin Helmich-Paris : MC-RPA, TRAH-(SCF,CASSCF), AVAS, COSX integrals, SCF dyn. polar. 
  Lee Huntington         : MR-EOM, pCC                                   
  Robert Izsak           : Overlap fitted RIJCOSX, COSX-SCS-MP3, EOM     
  Riya Kayal             : Wick's Theorem for AUTO-CI, AUTO-CI UHF-CCSDT 
  Emily Kempfer          : AUTO-CI, RHF CISDT and CCSDT                  
  Christian Kollmar      : KDIIS, OOCD, Brueckner-CCSD(T), CCSD density, CASPT2, CASPT2-K, improved NEVPT2 
  Axel Koslowski         : Symmetry handling                             
  Simone Kossmann        : meta-GGA functionals, TD-DFT gradient, OOMP2, (MP2 Hessian; deprecated post 5.0) 
  Lucas Lang             : DCDCAS                                        
  Marvin Lechner         : AUTO-CI (C++ implementation), FIC-MRCC        
  Spencer Leger          : CASSCF response                               
  Dagmar Lenk            : GEPOL surface, SMD, ORCA-2-JSON               
  Dimitrios Liakos       : Extrapolation schemes; Compound Job, initial MDCI parallelization 
  Dimitrios Manganas     : Further ROCIS development; embedding schemes. LFT, Crystal Embedding 
  Dimitrios Pantazis     : SARC Basis sets                               
  Anastasios Papadopoulos: AUTO-CI, single reference methods and gradients 
  Taras Petrenko         : pre 6.0 DFT Hessian and TD-DFT gradient, (ASA, deprecated), ECA, 1-Electron XAS/XES, NRVS 
  Peter Pinski           : DLPNO-MP2, DLPNO-MP2 Gradient                 
  Christoph Reimann      : Effective Core Potentials                     
  Marius Retegan         : Local ZFS, SOC                                
  Christoph Riplinger    : Optimizer, TS searches, QM/MM, DLPNO-CCSD(T), (RO)-DLPNO pert. Triples 
  Michael Roemelt        : Original ROCIS implementation                 
  Masaaki Saitow         : Open-shell DLPNO-CCSD energy and density      
  Barbara Sandhoefer     : DKH picture change effects                    
  Kantharuban Sivalingam : CASSCF convergence/infrastructure, NEVPT2 and variants, FIC-MRCI 
  Bernardo de Souza      : ESD, SOC TD-DFT                               
  Georgi L. Stoychev     : AutoAux, RI-MP2 NMR, DLPNO-MP2 response, X2C  
  Van Anh Tran           : RI-MP2 g-tensors                              
  Willem Van den Heuvel  : Paramagnetic NMR                              
  Zikuan Wang            : NOTCH, Electric field optimization            
  Frank Wennmohs         : Technical directorship and infrastructure     
  Hang Xu                : AUTO-CI-Response properties                   
                                                                         
[FACCTs GmbH]                                                            
  Markus Bursch, Miquel Garcia-Rates, Christoph Riplinger, Bernardo de Souza, Georgi L. Stoychev 
                                                                 
  APM, Basis sets (HGBS, AHGBS, def-TZVP (Ac-Lr), def2-XVPD (La-Lu)), CI-OPT, improved COSX, DLPNO-Multilevel,           
  DOCKER, DRACO, updates on ESD, GOAT, IRC, LR-CPCM, MBIS, meta-GGA TD-DFT gradient, ML-optimized integration grids, 
  MM, NACMEs, nearIR, NEB, NEB-TS, NL-DFT gradient (VV10), 2- and 3-layer-ONIOM, interface openCOSMO-RS, QMMM,   
  Crystal-QMMM, SF, symmetry and pop. for TD-DFT, r2SCAN hybrids, SOLVATOR                                   
                                                                         
[Other institutions]                                                     
  V. Asgeirsson          : NEB                                           
  Christoph Bannwarth    : sTDA-DFT, sTD-DFT, PBEh-3c, B97-3c, D3        
  Sebastian Ehlert       : rSCAN, r2SCAN, r2SCAN-3c, D4, dhf basis sets  
  Marvin Friede          : D4 for Fr, Ra, Ac-Lr                          
  Lars Goerigk           : TD-DFT with DH, B97 family of functionals     
  Stefan Grimme          : VdW corrections, initial TS optimization, DFT functionals, gCP, sTDA/sTD-DF 
  Waldemar Hujo          : DFT-NL                                        
  H. Jonsson             : NEB                                           
  Holger Kruse           : gCP                                           
  Marcel Mueller         : wB97X-3c, vDZP basis set                      
  Hagen Neugebauer       : wr2SCAN                                       
  Tobias Risthaus        : range-separated hybrid DFT                    
  Lukas Wittmann         : regularized MP2, r2SCAN double-hybrids, wr2SCAN        
                                                                         
We gratefully acknowledge several colleagues who have allowed us to      
interface, adapt or use parts of their codes:                            
  Ed Valeev, F. Pavosevic, A. Kumar             : LibInt (2-el integral package), F12 methods 
  Garnet Chan, S. Sharma, J. Yang, R. Olivares  : DMRG                   
  Ulf Ekstrom                                   : XCFun DFT Library      
  Mihaly Kallay                                 : mrcc  (arbitrary order and MRCC methods)
  Frank Weinhold                                : gennbo (NPA and NBO analysis)           
  Simon Mueller                                 : openCOSMO-RS                            
  Christopher J. Cramer and Donald G. Truhlar   : smd solvation model                     
  S Lehtola, MJT Oliveira, MAL Marques          : LibXC Library                           
  Liviu Ungur et al                             : ANISO software                          


 Your calculation uses the libint2 library for the computation of 2-el integrals
 For citations please refer to: http://libint.valeyev.net

 Your ORCA version has been built with support for libXC version: 6.2.2
 For citations please refer to: https://libxc.gitlab.io

 This ORCA versions uses:
   CBLAS   interface :  Fast vector & matrix operations
   LAPACKE interface :  Fast linear algebra routines
   SCALAPACK package :  Parallel linear algebra routines
   Shared memory     :  Shared parallel matrices
   BLAS/LAPACK       :  OpenBLAS 0.3.27  USE64BITINT DYNAMIC_ARCH NO_AFFINITY SapphireRapids SINGLE_THREADED
        Core in use  :  SapphireRapids
   Copyright (c) 2011-2014, The OpenBLAS Project


Warning! Weird basis set assignment to AuxJK basis!


***************************************
The coordinates will be read from file: /g/data/kx58/rs2200/dhdft/inputs/compas3x-xyzs/hc_c34h18_0pent_1.xyz
***************************************


Your calculation utilizes the atom-pairwise dispersion correction
based on EEQ partial charges (D4)


================================================================================

----- Orbital basis set information -----
Your calculation utilizes the basis: def2-QZVPP
   F. Weigend and R. Ahlrichs, Phys. Chem. Chem. Phys. 7, 3297 (2005).

----- AuxC basis set information -----
Your calculation utilizes the auxiliary basis: def2-QZVPP/C
  H-La, Hf-Rn : A. Hellweg, C. Hattig, S. Hofener and W. Klopper, Theor. Chem. Acc. 117, 587 (2007).
        Ce-Lu : J. Chmela and M. E. Harding, Mol. Phys. (2018).

----- AuxJK basis set information -----
Your calculation utilizes the auxiliary basis: def2-QZVPP/C
  H-La, Hf-Rn : A. Hellweg, C. Hattig, S. Hofener and W. Klopper, Theor. Chem. Acc. 117, 587 (2007).
        Ce-Lu : J. Chmela and M. E. Harding, Mol. Phys. (2018).

================================================================================
                                        WARNINGS
                       Please study these warnings very carefully!
================================================================================


WARNING: No MP2 level density has been requested!
         To calculate MP2 level properties use
         %mp2 Density relaxed end
         or
         %mp2 Density unrelaxed end
         Otherwise for double-hybrid DFT only the energy is correct!

================================================================================
                                       INPUT FILE
================================================================================
NAME = compas3x_hc_c34h18_0pent_1_qz_riri.inp
|  1> ! RKS revDSD-PBEP86-D4/2021 defgrid3  RIJK NOPOP NoFrozencore NoUseSym
|  2> 
|  3> %basis
|  4> Basis "def2-QZVPP"
|  5> AuxJK "def2-QZVPP/C"
|  6> AuxC "def2-QZVPP/C"
|  7> end
|  8> 
|  9> %method
| 10> ScalHFX 0.69
| 11> ScalDFX 0.31
| 12> ScalDFC 0.4038
| 13> ScalLDAC 0.4038
| 14> 
| 15> D4S6 0.4612
| 16> D4S8 0.0
| 17> D4A1 0.44
| 18> D4A2 3.60
| 19> end
| 20> 
| 21> %mp2
| 22> PS 0.5979
| 23> PT 0.0571
| 24> 
| 25> end
| 26> 
| 27> %pal
| 28> nprocs 104
| 29> end
| 30> 
| 31> *XYZFILE 0 1 /g/data/kx58/rs2200/dhdft/inputs/compas3x-xyzs/hc_c34h18_0pent_1.xyz
| 32> 
| 33>                          ****END OF INPUT****
================================================================================

                       ****************************
                       * Single Point Calculation *
                       ****************************

---------------------------------
CARTESIAN COORDINATES (ANGSTROEM)
---------------------------------
  C      2.625879   -1.536350   -0.601676
  C      1.865629   -2.717679   -0.766210
  C      0.447764   -2.649769   -0.878247
  C     -0.226982   -1.422589   -0.687352
  C      0.525192   -0.255732   -0.264147
  C      1.937705   -0.261161   -0.450113
  C      4.010437   -1.646172   -0.541806
  C      4.643035   -2.877665   -0.639919
  C      3.910578   -4.027733   -0.822130
  C      2.515682   -3.966918   -0.900744
  C      1.735932   -5.134494   -1.146046
  C      0.398027   -5.056454   -1.322362
  C     -0.285606   -3.810184   -1.222355
  C     -1.656895   -3.705605   -1.473529
  C     -2.275179   -2.474858   -1.432247
  C     -1.571095   -1.346156   -1.044868
  C     -0.085354    0.903106    0.245255
  C      0.578994    2.144809    0.119864
  C      1.946546    2.161406   -0.261792
  C      2.615826    0.941902   -0.433901
  C     -0.108780    3.373751    0.318566
  C      0.589487    4.556658    0.158885
  C      1.941267    4.567492   -0.192414
  C      2.612600    3.395307   -0.403689
  C     -1.346028    0.893033    0.970664
  C     -2.073487    2.103885    1.102195
  C     -1.518692    3.341646    0.683881
  C     -3.365423    2.076787    1.689178
  C     -4.133503    3.258214    1.710557
  C     -3.625677    4.421439    1.199130
  C     -2.317696    4.470827    0.713941
  C     -1.808633   -0.235876    1.627295
  C     -3.045392   -0.240051    2.269486
  C     -3.838885    0.876868    2.255089
  H      4.622434   -0.770286   -0.397170
  H      5.720478   -2.926308   -0.575936
  H      4.403446   -4.984654   -0.916250
  H      2.250565   -6.082199   -1.219146
  H     -0.184252   -5.938540   -1.548683
  H     -2.215464   -4.593517   -1.732393
  H     -3.319234   -2.383799   -1.693981
  H     -2.077228   -0.393488   -1.024792
  H      3.681603    0.978865   -0.594730
  H      0.097359    5.503901    0.312863
  H      2.449904    5.514714   -0.298610
  H      3.655367    3.396223   -0.686322
  H     -5.124295    3.228252    2.140335
  H     -4.222517    5.322088    1.197062
  H     -1.938649    5.418638    0.365364
  H     -1.212451   -1.135586    1.631767
  H     -3.381557   -1.142347    2.759057
  H     -4.822779    0.863360    2.701124

----------------------------
CARTESIAN COORDINATES (A.U.)
----------------------------
  NO LB      ZA    FRAG     MASS         X           Y           Z
   0 C     6.0000    0    12.011    4.962192   -2.903281   -1.137003
   1 C     6.0000    0    12.011    3.525527   -5.135668   -1.447926
   2 C     6.0000    0    12.011    0.846151   -5.007338   -1.659645
   3 C     6.0000    0    12.011   -0.428934   -2.688304   -1.298906
   4 C     6.0000    0    12.011    0.992469   -0.483264   -0.499166
   5 C     6.0000    0    12.011    3.661731   -0.493523   -0.850589
   6 C     6.0000    0    12.011    7.578628   -3.110814   -1.023865
   7 C     6.0000    0    12.011    8.774064   -5.437998   -1.209272
   8 C     6.0000    0    12.011    7.389921   -7.611313   -1.553600
   9 C     6.0000    0    12.011    4.753950   -7.496388   -1.702159
  10 C     6.0000    0    12.011    3.280436   -9.702788   -2.165713
  11 C     6.0000    0    12.011    0.752163   -9.555314   -2.498902
  12 C     6.0000    0    12.011   -0.539718   -7.200205   -2.309916
  13 C     6.0000    0    12.011   -3.131078   -7.002579   -2.784567
  14 C     6.0000    0    12.011   -4.299466   -4.676803   -2.706555
  15 C     6.0000    0    12.011   -2.968939   -2.543866   -1.974515
  16 C     6.0000    0    12.011   -0.161297    1.706623    0.463464
  17 C     6.0000    0    12.011    1.094139    4.053101    0.226510
  18 C     6.0000    0    12.011    3.678438    4.084465   -0.494714
  19 C     6.0000    0    12.011    4.943195    1.779937   -0.819953
  20 C     6.0000    0    12.011   -0.205565    6.375466    0.602002
  21 C     6.0000    0    12.011    1.113968    8.610835    0.300249
  22 C     6.0000    0    12.011    3.668463    8.631309   -0.363609
  23 C     6.0000    0    12.011    4.937099    6.416201   -0.762862
  24 C     6.0000    0    12.011   -2.543624    1.687588    1.834289
  25 C     6.0000    0    12.011   -3.918323    3.975767    2.082847
  26 C     6.0000    0    12.011   -2.869911    6.314795    1.292347
  27 C     6.0000    0    12.011   -6.359728    3.924558    3.192084
  28 C     6.0000    0    12.011   -7.811189    6.157133    3.232483
  29 C     6.0000    0    12.011   -6.851536    8.355309    2.266027
  30 C     6.0000    0    12.011   -4.379811    8.448639    1.349152
  31 C     6.0000    0    12.011   -3.417822   -0.445741    3.075141
  32 C     6.0000    0    12.011   -5.754956   -0.453631    4.288708
  33 C     6.0000    0    12.011   -7.254442    1.657041    4.261501
  34 H     1.0000    0     1.008    8.735135   -1.455630   -0.750542
  35 H     1.0000    0     1.008   10.810137   -5.529922   -1.088362
  36 H     1.0000    0     1.008    8.321307   -9.419632   -1.731461
  37 H     1.0000    0     1.008    4.252951  -11.493690   -2.303851
  38 H     1.0000    0     1.008   -0.348185  -11.222214   -2.926586
  39 H     1.0000    0     1.008   -4.186619   -8.680490   -3.273747
  40 H     1.0000    0     1.008   -6.272443   -4.504728   -3.201160
  41 H     1.0000    0     1.008   -3.925392   -0.743585   -1.936576
  42 H     1.0000    0     1.008    6.957221    1.849787   -1.123878
  43 H     1.0000    0     1.008    0.183981   10.400865    0.591226
  44 H     1.0000    0     1.008    4.629648   10.421299   -0.564292
  45 H     1.0000    0     1.008    6.907642    6.417931   -1.296961
  46 H     1.0000    0     1.008   -9.683514    6.100511    4.044646
  47 H     1.0000    0     1.008   -7.979401   10.057289    2.262120
  48 H     1.0000    0     1.008   -3.663516   10.239742    0.690438
  49 H     1.0000    0     1.008   -2.291200   -2.145947    3.083593
  50 H     1.0000    0     1.008   -6.390216   -2.158722    5.213862
  51 H     1.0000    0     1.008   -9.113732    1.631514    5.104384

--------------------------------
INTERNAL COORDINATES (ANGSTROEM)
--------------------------------
 C      0   0   0     0.000000000000     0.00000000     0.00000000
 C      1   0   0     1.414421409701     0.00000000     0.00000000
 C      2   1   0     1.423904868590   120.30075249     0.00000000
 C      3   2   1     1.413397815547   120.40769000   353.37121579
 C      4   3   2     1.451352006611   119.34216008   354.78042156
 C      5   4   3     1.424711913829   118.20937126    19.10215945
 C      1   2   3     1.390196814739   118.31704343   182.12966537
 C      7   1   2     1.387941260792   121.39806362     0.00000000
 C      8   7   1     1.375627561327   120.56237961     1.06736093
 C      9   8   7     1.398432750862   120.14530695   359.53541455
 C     10   9   8     1.425278096258   121.31564217   177.28970450
 C     11  10   9     1.351727252699   121.10753772   185.08510387
 C      3   2   1     1.415205096023   119.73804605   171.46817422
 C     13   3   2     1.398019195649   119.38315605   186.94893567
 C     14  13   3     1.377940260022   120.10287395     2.30708344
 C     15  14  13     1.385555546107   120.52840814   355.12995391
 C      5   4   3     1.405405089275   122.92037259   195.25490167
 C     17   5   4     1.413826827423   119.20218310   205.99517012
 C     18  17   5     1.419906855204   119.12208040   347.21182144
 C      6   5   4     1.381113086009   118.81223028   161.07761258
 C     18  17   5     1.422257302283   121.28274649   164.78803016
 C     21  18  17     1.382874514916   118.60837367   181.12588957
 C     22  21  18     1.396724201675   121.62577926     0.12770812
 C     23  22  21     1.367239062868   120.49276423     0.70699556
 C     17   5   4     1.454516502344   123.47616562    29.54966774
 C     25  17   5     1.418682454526   118.99689728   198.27943051
 C     26  25  17     1.419449066750   121.09883274   352.28843746
 C     26  25  17     1.419289588712   119.26224651   173.68037797
 C     28  26  25     1.409317143188   119.10202448   185.59979460
 C     29  28  26     1.368406434901   120.30998542   358.51454923
 C     27  26  25     1.383605060174   118.65540999   173.79427678
 C     25  17   5     1.385497727426   122.10005252    23.47064259
 C     32  25  17     1.393556189860   121.14229967   182.69439520
 C     33  32  25     1.370163823345   120.44281212     0.52643770
 H      7   1   2     1.078255862267   120.45655269   181.23356699
 H      8   7   1     1.080437230465   119.35894558   180.81468552
 H      9   8   7     1.080497575182   120.60225033   178.90250074
 H     11  10   9     1.080895027282   117.99611311     3.13046731
 H     12  11  10     1.080900077030   120.88966415   177.45017811
 H     14  13   3     1.080461386416   119.25245896   180.23111572
 H     15  14  13     1.080206834657   120.11373246   175.69696309
 H     16  15  14     1.078958012516   119.08439448   179.75123125
 H     20   6   5     1.078476568015   120.88516645   181.47423763
 H     22  21  18     1.078503213727   120.29134869   180.63291807
 H     23  22  21     1.080378933791   119.15473623   180.50162870
 H     24  23  22     1.080390501322   120.90476182   179.31788845
 H     29  28  26     1.080404878905   118.85419802   178.77281332
 H     30  29  28     1.080458770370   120.28545770   178.72600418
 H     31  27  26     1.078669212916   120.47483062   182.46728903
 H     32  25  17     1.079320101204   119.78490939     1.71195219
 H     33  32  25     1.080196108151   119.17986135   179.08471553
 H     34  33  32     1.080359155541   120.85601888   176.42581396

---------------------------
INTERNAL COORDINATES (A.U.)
---------------------------
 C      0   0   0     0.000000000000     0.00000000     0.00000000
 C      1   0   0     2.672869102290     0.00000000     0.00000000
 C      2   1   0     2.690790242393   120.30075249     0.00000000
 C      3   2   1     2.670934789666   120.40769000   353.37121579
 C      4   3   2     2.742657816412   119.34216008   354.78042156
 C      5   4   3     2.692315336872   118.20937126    19.10215945
 C      1   2   3     2.627091252106   118.31704343   182.12966537
 C      7   1   2     2.622828872866   121.39806362     0.00000000
 C      8   7   1     2.599559353181   120.56237961     1.06736093
 C      9   8   7     2.642654915836   120.14530695   359.53541455
 C     10   9   8     2.693385266605   121.31564217   177.28970450
 C     11  10   9     2.554394315359   121.10753772   185.08510387
 C      3   2   1     2.674350054812   119.73804605   171.46817422
 C     13   3   2     2.641873409741   119.38315605   186.94893567
 C     14  13   3     2.603929720346   120.10287395     2.30708344
 C     15  14  13     2.618320525477   120.52840814   355.12995391
 C      5   4   3     2.655830725950   122.92037259   195.25490167
 C     17   5   4     2.671745504621   119.20218310   205.99517012
 C     18  17   5     2.683235092012   119.12208040   347.21182144
 C      6   5   4     2.609925492532   118.81223028   161.07761258
 C     18  17   5     2.687676793285   121.28274649   164.78803016
 C     21  18  17     2.613254110771   118.60837367   181.12588957
 C     22  21  18     2.639426225786   121.62577926     0.12770812
 C     23  22  21     2.583707388420   120.49276423     0.70699556
 C     17   5   4     2.748637846698   123.47616562    29.54966774
 C     25  17   5     2.680921310053   118.99689728   198.27943051
 C     26  25  17     2.682369997208   121.09883274   352.28843746
 C     26  25  17     2.682068627391   119.26224651   173.68037797
 C     28  26  25     2.663223436466   119.10202448   185.59979460
 C     29  28  26     2.585913401857   120.30998542   358.51454923
 C     27  26  25     2.614634641237   118.65540999   173.79427678
 C     25  17   5     2.618211264006   122.10005252    23.47064259
 C     32  25  17     2.633439551065   121.14229967   182.69439520
 C     33  32  25     2.589234384728   120.44281212     0.52643770
 H      7   1   2     2.037608281979   120.45655269   181.23356699
 H      8   7   1     2.041730470472   119.35894558   180.81468552
 H      9   8   7     2.041844505461   120.60225033   178.90250074
 H     11  10   9     2.042595581080   117.99611311     3.13046731
 H     12  11  10     2.042605123721   120.88966415   177.45017811
 H     14  13   3     2.041776118603   119.25245896   180.23111572
 H     15  14  13     2.041295085492   120.11373246   175.69696309
 H     16  15  14     2.038935153654   119.08439448   179.75123125
 H     20   6   5     2.038025355400   120.88516645   181.47423763
 H     22  21  18     2.038075708497   120.29134869   180.63291807
 H     23  22  21     2.041620305723   119.15473623   180.50162870
 H     24  23  22     2.041642165188   120.90476182   179.31788845
 H     29  28  26     2.041669334882   118.85419802   178.77281332
 H     30  29  28     2.041771174993   120.28545770   178.72600418
 H     31  27  26     2.038389401504   120.47483062   182.46728903
 H     32  25  17     2.039619402111   119.78490939     1.71195219
 H     33  32  25     2.041274815334   119.17986135   179.08471553
 H     34  33  32     2.041582930246   120.85601888   176.42581396

---------------------
BASIS SET INFORMATION
---------------------
There are 2 groups of distinct atoms

 Group   1 Type C   : 15s8p3d2f1g contracted to 7s4p3d2f1g pattern {8211111/5111/111/11/1}
 Group   2 Type H   : 7s3p2d1f contracted to 4s3p2d1f pattern {4111/111/11/1}

Atom   0C    basis set group =>   1
Atom   1C    basis set group =>   1
Atom   2C    basis set group =>   1
Atom   3C    basis set group =>   1
Atom   4C    basis set group =>   1
Atom   5C    basis set group =>   1
Atom   6C    basis set group =>   1
Atom   7C    basis set group =>   1
Atom   8C    basis set group =>   1
Atom   9C    basis set group =>   1
Atom  10C    basis set group =>   1
Atom  11C    basis set group =>   1
Atom  12C    basis set group =>   1
Atom  13C    basis set group =>   1
Atom  14C    basis set group =>   1
Atom  15C    basis set group =>   1
Atom  16C    basis set group =>   1
Atom  17C    basis set group =>   1
Atom  18C    basis set group =>   1
Atom  19C    basis set group =>   1
Atom  20C    basis set group =>   1
Atom  21C    basis set group =>   1
Atom  22C    basis set group =>   1
Atom  23C    basis set group =>   1
Atom  24C    basis set group =>   1
Atom  25C    basis set group =>   1
Atom  26C    basis set group =>   1
Atom  27C    basis set group =>   1
Atom  28C    basis set group =>   1
Atom  29C    basis set group =>   1
Atom  30C    basis set group =>   1
Atom  31C    basis set group =>   1
Atom  32C    basis set group =>   1
Atom  33C    basis set group =>   1
Atom  34H    basis set group =>   2
Atom  35H    basis set group =>   2
Atom  36H    basis set group =>   2
Atom  37H    basis set group =>   2
Atom  38H    basis set group =>   2
Atom  39H    basis set group =>   2
Atom  40H    basis set group =>   2
Atom  41H    basis set group =>   2
Atom  42H    basis set group =>   2
Atom  43H    basis set group =>   2
Atom  44H    basis set group =>   2
Atom  45H    basis set group =>   2
Atom  46H    basis set group =>   2
Atom  47H    basis set group =>   2
Atom  48H    basis set group =>   2
Atom  49H    basis set group =>   2
Atom  50H    basis set group =>   2
Atom  51H    basis set group =>   2
---------------------------------
AUXILIARY/C BASIS SET INFORMATION
---------------------------------
There are 2 groups of distinct atoms

 Group   1 Type C   : 9s8p7d5f3g1h contracted to 9s8p7d5f3g1h pattern {111111111/11111111/1111111/11111/111/1}
 Group   2 Type H   : 6s4p3d2f1g contracted to 6s4p3d2f1g pattern {111111/1111/111/11/1}

Atom   0C    basis set group =>   1
Atom   1C    basis set group =>   1
Atom   2C    basis set group =>   1
Atom   3C    basis set group =>   1
Atom   4C    basis set group =>   1
Atom   5C    basis set group =>   1
Atom   6C    basis set group =>   1
Atom   7C    basis set group =>   1
Atom   8C    basis set group =>   1
Atom   9C    basis set group =>   1
Atom  10C    basis set group =>   1
Atom  11C    basis set group =>   1
Atom  12C    basis set group =>   1
Atom  13C    basis set group =>   1
Atom  14C    basis set group =>   1
Atom  15C    basis set group =>   1
Atom  16C    basis set group =>   1
Atom  17C    basis set group =>   1
Atom  18C    basis set group =>   1
Atom  19C    basis set group =>   1
Atom  20C    basis set group =>   1
Atom  21C    basis set group =>   1
Atom  22C    basis set group =>   1
Atom  23C    basis set group =>   1
Atom  24C    basis set group =>   1
Atom  25C    basis set group =>   1
Atom  26C    basis set group =>   1
Atom  27C    basis set group =>   1
Atom  28C    basis set group =>   1
Atom  29C    basis set group =>   1
Atom  30C    basis set group =>   1
Atom  31C    basis set group =>   1
Atom  32C    basis set group =>   1
Atom  33C    basis set group =>   1
Atom  34H    basis set group =>   2
Atom  35H    basis set group =>   2
Atom  36H    basis set group =>   2
Atom  37H    basis set group =>   2
Atom  38H    basis set group =>   2
Atom  39H    basis set group =>   2
Atom  40H    basis set group =>   2
Atom  41H    basis set group =>   2
Atom  42H    basis set group =>   2
Atom  43H    basis set group =>   2
Atom  44H    basis set group =>   2
Atom  45H    basis set group =>   2
Atom  46H    basis set group =>   2
Atom  47H    basis set group =>   2
Atom  48H    basis set group =>   2
Atom  49H    basis set group =>   2
Atom  50H    basis set group =>   2
Atom  51H    basis set group =>   2
----------------------------------
AUXILIARY/JK BASIS SET INFORMATION
----------------------------------
There are 2 groups of distinct atoms

 Group   1 Type C   : 9s8p7d5f3g1h contracted to 9s8p7d5f3g1h pattern {111111111/11111111/1111111/11111/111/1}
 Group   2 Type H   : 6s4p3d2f1g contracted to 6s4p3d2f1g pattern {111111/1111/111/11/1}

Atom   0C    basis set group =>   1
Atom   1C    basis set group =>   1
Atom   2C    basis set group =>   1
Atom   3C    basis set group =>   1
Atom   4C    basis set group =>   1
Atom   5C    basis set group =>   1
Atom   6C    basis set group =>   1
Atom   7C    basis set group =>   1
Atom   8C    basis set group =>   1
Atom   9C    basis set group =>   1
Atom  10C    basis set group =>   1
Atom  11C    basis set group =>   1
Atom  12C    basis set group =>   1
Atom  13C    basis set group =>   1
Atom  14C    basis set group =>   1
Atom  15C    basis set group =>   1
Atom  16C    basis set group =>   1
Atom  17C    basis set group =>   1
Atom  18C    basis set group =>   1
Atom  19C    basis set group =>   1
Atom  20C    basis set group =>   1
Atom  21C    basis set group =>   1
Atom  22C    basis set group =>   1
Atom  23C    basis set group =>   1
Atom  24C    basis set group =>   1
Atom  25C    basis set group =>   1
Atom  26C    basis set group =>   1
Atom  27C    basis set group =>   1
Atom  28C    basis set group =>   1
Atom  29C    basis set group =>   1
Atom  30C    basis set group =>   1
Atom  31C    basis set group =>   1
Atom  32C    basis set group =>   1
Atom  33C    basis set group =>   1
Atom  34H    basis set group =>   2
Atom  35H    basis set group =>   2
Atom  36H    basis set group =>   2
Atom  37H    basis set group =>   2
Atom  38H    basis set group =>   2
Atom  39H    basis set group =>   2
Atom  40H    basis set group =>   2
Atom  41H    basis set group =>   2
Atom  42H    basis set group =>   2
Atom  43H    basis set group =>   2
Atom  44H    basis set group =>   2
Atom  45H    basis set group =>   2
Atom  46H    basis set group =>   2
Atom  47H    basis set group =>   2
Atom  48H    basis set group =>   2
Atom  49H    basis set group =>   2
Atom  50H    basis set group =>   2
Atom  51H    basis set group =>   2


           ************************************************************
           *        Program running with 104 parallel MPI-processes   *
           *              working on a common directory               *
           ************************************************************
------------------------------------------------------------------------------
                             ORCA STARTUP CALCULATIONS
                           -- RI-GTO INTEGRALS CHOSEN --
------------------------------------------------------------------------------
------------------------------------------------------------------------------
                   ___                                                        
                  /   \      - P O W E R E D   B Y -                         
                 /     \                                                     
                 |  |  |   _    _      __       _____    __    __             
                 |  |  |  | |  | |    /  \     |  _  \  |  |  /  |          
                  \  \/   | |  | |   /    \    | | | |  |  | /  /          
                 / \  \   | |__| |  /  /\  \   | |_| |  |  |/  /          
                |  |  |   |  __  | /  /__\  \  |    /   |      \           
                |  |  |   | |  | | |   __   |  |    \   |  |\   \          
                \     /   | |  | | |  |  |  |  | |\  \  |  | \   \       
                 \___/    |_|  |_| |__|  |__|  |_| \__\ |__|  \__/        
                                                                              
                      - O R C A' S   B I G   F R I E N D -                    
                                      &                                       
                       - I N T E G R A L  F E E D E R -                       
                                                                              
 v1 FN, 2020, v2 2021, v3 2022-2024                                           
------------------------------------------------------------------------------


----------------------
SHARK INTEGRAL PACKAGE
----------------------

Number of atoms                             ...     52
Number of basis functions                   ...   2478
Number of shells                            ...    758
Maximum angular momentum                    ...      4
Integral batch strategy                     ... SHARK/LIBINT Hybrid
RI-J (if used) integral strategy            ... SPLIT-RIJ (Revised 2003 algorithm where possible)
Printlevel                                  ...      1
Contraction scheme used                     ... SEGMENTED contraction
Prescreening option                         ... SCHWARTZ
   Thresh                                   ... 1.000e-10
   Tcut                                     ... 1.000e-11
   Tpresel                                  ... 1.000e-11 
Coulomb Range Separation                    ... NOT USED
Exchange Range Separation                   ... NOT USED
Multipole approximations                    ... NOT USED
Finite Nucleus Model                        ... NOT USED
CABS basis                                  ... NOT available
Auxiliary Coulomb fitting basis             ... NOT available
Auxiliary J/K fitting basis                 ... AVAILABLE
   # of basis functions in Aux-JK           ...   5802
   # of shells in Aux-JK                    ...   1410
   Maximum angular momentum in Aux-JK       ...      5
Auxiliary Correlation fitting basis         ... AVAILABLE
   # of basis functions in Aux-C            ...   5802
   # of shells in Aux-C                     ...   1410
   Maximum angular momentum in Aux-C        ...      5
Auxiliary 'external' fitting basis          ... NOT available

Checking pre-screening integrals            ... done (  0.1 sec) Dimension = 758
Check shell pair data                       ... done (  0.1 sec)
Shell pair information
Shell pair cut-off parameter TPreSel        ...   1.0e-11
Total number of shell pairs                 ...    287661
Shell pairs after pre-screening             ...    152281
Total number of primitive shell pairs       ...    746244
Primitive shell pairs kept                  ...    264548
          la=0 lb=0:  22977 shell pairs
          la=1 lb=0:  34817 shell pairs
          la=1 lb=1:  12347 shell pairs
          la=2 lb=0:  20507 shell pairs
          la=2 lb=1:  15760 shell pairs
          la=2 lb=2:   4871 shell pairs
          la=3 lb=0:  12137 shell pairs
          la=3 lb=1:   9379 shell pairs
          la=3 lb=2:   5487 shell pairs
          la=3 lb=3:   1614 shell pairs
          la=4 lb=0:   4830 shell pairs
          la=4 lb=1:   3780 shell pairs
          la=4 lb=2:   2221 shell pairs
          la=4 lb=3:   1276 shell pairs
          la=4 lb=4:    278 shell pairs

Calculating one electron integrals          ... done (  1.4 sec)
Calculating RI/JK V-Matrix + Cholesky decomp... done (  2.3 sec)
Calculating RI/C V-Matrix + Cholesky decomp.... done (  2.0 sec)
Calculating Nuclear repulsion               ... done (  0.0 sec) ENN=   3166.090951306067 Eh

Diagonalization of the overlap matrix:
Smallest eigenvalue                        ... 2.798e-07
Time for diagonalization                   ...    1.004 sec
Threshold for overlap eigenvalues          ... 1.000e-07
Number of eigenvalues below threshold      ... 0

IMPORTANT:
Smallest eigenvalue of S below the DiffSThresh (1.000e-06) while
Thresh>1e-12 and/or TCut>1e-13! In order to avoid SCF convergence issues,
Thresh will be set to at least 1e-12 and TCut to at least 1e-13.
This can be turned off by adding %SCF DiffSThresh -1 END to the input.

Time for construction of square roots      ...    0.696 sec
Total time needed                          ...    1.780 sec

-------------------
DFT GRID GENERATION
-------------------

General Integration Accuracy     IntAcc      ... 4.959
Radial Grid Type                 RadialGrid  ... OptM3 with GC (2021)
Angular Grid (max. ang.)         AngularGrid ... 6 (Lebedev-590)
Angular grid pruning method      GridPruning ... 4 (adaptive)
Weight generation scheme         WeightScheme... mBecke (2022)
Basis function cutoff            BFCut       ... 1.0000e-10
Integration weight cutoff        WCut        ... 1.0000e-14
Partially contracted basis set               ... off
Rotationally invariant grid construction     ... off
Angular grids for H and He will be reduced by one unit
Diffuse basis detected: some atoms will have their outermost
                        angular grid increased by 1.

Total number of grid points                  ...   643206
Total number of batches                      ...    10076
Average number of points per batch           ...       63
Average number of grid points per atom       ...    12369
Initializing property integral containers    ... done (  0.1 sec)

SHARK setup successfully completed in 118.6 seconds

Maximum memory used throughout the entire STARTUP-calculation: 302.2 MB


           ************************************************************
           *        Program running with 104 parallel MPI-processes   *
           *              working on a common directory               *
           ************************************************************
-------------------------------------------------------------------------------
                                 ORCA GUESS
                   Start orbitals & Density for SCF / CASSCF
-------------------------------------------------------------------------------

------------
SCF SETTINGS
------------
Hamiltonian:
 Density Functional     Method          .... DFT(GTOs)
 Exchange Functional    Exchange        .... PBE
   PBE kappa parameter   XKappa         ....  0.804000
   PBE mue parameter    XMuePBE         ....  0.219520
 Correlation Functional Correlation     .... P86
 LDA part of GGA corr.  LDAOpt          .... VWN-5
 Gradients option       PostSCFGGA      .... off
 Hybrid DFT is turned on
   Fraction HF Exchange ScalHFX         ....  0.690000
   Scaling of DF-GGA-X  ScalDFX         ....  0.310000
   Scaling of DF-GGA-C  ScalDFC         ....  0.403800
   Scaling of DF-LDA-C  ScalLDAC        ....  0.403800
   Perturbative correction              ....  1.000000
 RI-approximation to the Coulomb term is turned on
   Number of AuxJK basis functions      .... 5802
   RI-JK (J+K treated both via RI)      .... on


General Settings:
 Integral files         IntName         .... compas3x_hc_c34h18_0pent_1_qz_riri
 Hartree-Fock type      HFTyp           .... RHF
 Total Charge           Charge          ....    0
 Multiplicity           Mult            ....    1
 Number of Electrons    NEL             ....  222
 Basis Dimension        Dim             .... 2478
 Nuclear Repulsion      ENuc            ....   3166.0909513061 Eh

Convergence Acceleration:
 AO-DIIS                CNVDIIS         .... on
   Start iteration      DIISMaxIt       ....    12
   Startup error        DIISStart       ....  0.200000
   # of expansion vecs  DIISMaxEq       ....     5
   Bias factor          DIISBfac        ....   1.050
   Max. coefficient     DIISMaxC        ....  10.000
 MO-DIIS                CNVKDIIS        .... off
 Trust-Rad. Augm. Hess. CNVTRAH         .... auto
   Auto Start mean grad. ratio tolernc. ....  1.125000
   Auto Start start iteration           ....    50
   Auto Start num. interpolation iter.  ....    10
   Max. Number of Micro iterations      ....    24
   Max. Number of Macro iterations      .... Maxiter - #DIIS iter
   Number of Davidson start vectors     ....     2
   Converg. threshold    (grad. norm)   ....   5.000e-05
   Grad. Scal. Fac. for Micro threshold ....   0.100
   Minimum threshold for Micro iter.    ....   1.000e-02
   NR start threshold (gradient norm)   ....   1.000e-04
   Initial trust radius                 ....   0.400
   Minimum AH scaling param. (alpha)    ....   1.000
   Maximum AH scaling param. (alpha)    .... 1000.000
   Quad. conv. algorithm                .... NR
   White noise on init. David. guess    .... on
   Maximum white noise                  ....   0.010
   Pseudo random numbers                .... off
   Inactive MOs                         .... canonical
   Orbital update algorithm             .... Taylor
   Preconditioner                       .... Diag
   Full preconditioner red. dimension   ....   250
 SOSCF                  CNVSOSCF        .... on
   Start iteration      SOSCFMaxIt      ....   150
   Startup grad/error   SOSCFStart      ....  0.003300
   Hessian update       SOSCFHessUp     .... L-BFGS
 Level Shifting         CNVShift        .... on
   Level shift para.    LevelShift      ....    0.2500
   Turn off err/grad.   ShiftErr        ....    0.0010
 Zerner damping         CNVZerner       .... off
 Static damping         CNVDamp         .... on
   Fraction old density DampFac         ....    0.7000
   Max. Damping (<1)    DampMax         ....    0.9800
   Min. Damping (>=0)   DampMin         ....    0.0000
   Turn off err/grad.   DampErr         ....    0.1000

SCF Procedure:
 Maximum # iterations   MaxIter         ....   125
 SCF integral mode      SCFMode         .... Direct
   Integral package                     .... SHARK and LIBINT hybrid scheme
 Reset frequency        DirectResetFreq ....    20
 Integral Threshold     Thresh          ....  1.000e-12 Eh
 Primitive CutOff       TCut            ....  1.000e-13 Eh

Convergence Tolerance:
 Convergence Check Mode ConvCheckMode   .... Total+1el-Energy
 Convergence forced     ConvForced      .... 0
 Energy Change          TolE            ....  1.000e-06 Eh
 1-El. energy change                    ....  1.000e-03 Eh
 Orbital Gradient       TolG            ....  5.000e-05
 Orbital Rotation angle TolX            ....  5.000e-05
 DIIS Error             TolErr          ....  1.000e-06

------------------------------
INITIAL GUESS: MODEL POTENTIAL
------------------------------
Loading Hartree-Fock densities                     ... done
Calculating cut-offs                               ... done
Initializing the effective Hamiltonian             ... done
Setting up the integral package (SHARK)            ... done
Starting the Coulomb interaction                   ... done (   0.7 sec)
Making the grid                                    ... done (   0.6 sec)
Mapping shells                                     ... done
Starting the XC term evaluation                    ... done (   0.2 sec)
  promolecular density results
     # of electrons  =    221.998401848
     EX              =   -179.481664537
     EC              =      0.265070047
     EX+EC           =   -179.216594490
Transforming the Hamiltonian                       ... done (   0.5 sec)
Diagonalizing the Hamiltonian                      ... done (   0.6 sec)
Back transforming the eigenvectors                 ... done (   0.3 sec)
Now organizing SCF variables                       ... done
                      ------------------
                      INITIAL GUESS DONE (   3.8 sec)
                      ------------------
             **** ENERGY FILE WAS UPDATED (compas3x_hc_c34h18_0pent_1_qz_riri.en.tmp) ****
Finished Guess after  22.1 sec
Maximum memory used throughout the entire GUESS-calculation: 347.0 MB


           ************************************************************
           *        Program running with 104 parallel MPI-processes   *
           *              working on a common directory               *
           ************************************************************

-------------------------------------------------------------------------------------------
                                      ORCA LEAN-SCF
                              memory conserving SCF solver
-------------------------------------------------------------------------------------------


Warning (ORCA_SCF): Not enough memory available!
                    Memory available for SCF calculation:       1024.0 MB
                    Memory needed (estimated)           :       1084.6 MB


----------------------------------------D-I-I-S--------------------------------------------
Iteration    Energy (Eh)           Delta-E    RMSDP     MaxDP     DIISErr   Damp  Time(sec)
-------------------------------------------------------------------------------------------
    1    -1300.9185278077857220     0.00e+00  3.31e-04  4.32e-02  1.53e-01  0.700  38.0
    2    -1300.6841819741639483     2.34e-01  3.45e-04  4.84e-02  1.36e-01  0.700  38.7
                               ***Turning on AO-DIIS***
    3    -1300.8333133902606278    -1.49e-01  2.55e-04  4.70e-02  7.97e-02  0.700  37.6
    4    -1301.1227400513271277    -2.89e-01  9.01e-04  2.48e-01  4.08e-02  0.000  37.2
    5    -1301.5934857720494620    -4.71e-01  1.51e-04  2.40e-02  3.67e-02  0.000  36.9
    6    -1301.6134331376879345    -1.99e-02  7.62e-05  1.16e-02  1.63e-02  0.000 140.1
    7    -1301.6183585273493009    -4.93e-03  4.89e-05  1.27e-02  5.51e-03  0.000  38.1
                              *** Initializing SOSCF ***
---------------------------------------S-O-S-C-F--------------------------------------
Iteration    Energy (Eh)           Delta-E    RMSDP     MaxDP     MaxGrad    Time(sec)
--------------------------------------------------------------------------------------
    8    -1301.6189693191745391    -6.11e-04  3.66e-05  9.22e-03  1.38e-03    40.2
    9    -1301.6190233535098741    -5.40e-05  2.24e-05  4.64e-03  1.80e-04    37.1
   10    -1301.6190305811915096    -7.23e-06  1.92e-05  3.92e-03  1.22e-04    36.4
   11    -1301.6190317842829245    -1.20e-06  7.08e-06  1.78e-03  6.77e-05    36.7
   12    -1301.6190323953542247    -6.11e-07  3.07e-06  8.45e-04  1.63e-05    36.5
                 **** Energy Check signals convergence ****

               *****************************************************
               *                     SUCCESS                       *
               *           SCF CONVERGED AFTER  12 CYCLES          *
               *****************************************************

             **** ENERGY FILE WAS UPDATED (compas3x_hc_c34h18_0pent_1_qz_riri.en.tmp) ****

----------------
TOTAL SCF ENERGY
----------------

Total Energy       :      -1301.61903239535422 Eh          -35418.85453 eV

Components:
Nuclear Repulsion  :       3166.09095130606693 Eh           86153.71476 eV
Electronic Energy  :      -4467.70998370142115 Eh         -121572.56929 eV
One Electron Energy:      -8060.16817566200098 Eh         -219328.32650 eV
Two Electron Energy:       3592.45819196058028 Eh           97755.75721 eV

Virial components:
Potential Energy   :      -2600.46943349587264 Eh          -70762.37077 eV
Kinetic Energy     :       1298.85040110051841 Eh           35343.51624 eV
Virial Ratio       :          2.00213160137033

DFT components:
N(Alpha)           :      110.999993719372 electrons
N(Beta)            :      110.999993719372 electrons
N(Total)           :      221.999987438743 electrons
E(X)               :      -56.572038521434 Eh       
E(C)               :       -3.322418424847 Eh       
E(XC)              :      -59.894456946281 Eh       

---------------
SCF CONVERGENCE
---------------

  Last Energy change         ...    6.1107e-07  Tolerance :   1.0000e-06
  Last MAX-Density change    ...    8.4456e-04  Tolerance :   1.0000e-05
  Last RMS-Density change    ...    3.0734e-06  Tolerance :   1.0000e-06
  Last DIIS Error            ...    1.3757e-03  Tolerance :   1.0000e-06
  Last Orbital Gradient      ...    1.6266e-05  Tolerance :   5.0000e-05
  Last Orbital Rotation      ...    5.9411e-05  Tolerance :   5.0000e-05


----------------
ORBITAL ENERGIES
----------------

  NO   OCC          E(Eh)            E(eV) 
   0   2.0000     -10.838781      -294.9382 
   1   2.0000     -10.837882      -294.9137 
   2   2.0000     -10.836971      -294.8890 
   3   2.0000     -10.835844      -294.8583 
   4   2.0000     -10.835826      -294.8578 
   5   2.0000     -10.834610      -294.8247 
   6   2.0000     -10.832996      -294.7808 
   7   2.0000     -10.832982      -294.7804 
   8   2.0000     -10.832756      -294.7743 
   9   2.0000     -10.831799      -294.7482 
  10   2.0000     -10.831792      -294.7480 
  11   2.0000     -10.831103      -294.7293 
  12   2.0000     -10.831088      -294.7289 
  13   2.0000     -10.830664      -294.7173 
  14   2.0000     -10.830623      -294.7162 
  15   2.0000     -10.829743      -294.6923 
  16   2.0000     -10.823396      -294.5196 
  17   2.0000     -10.823062      -294.5105 
  18   2.0000     -10.822683      -294.5002 
  19   2.0000     -10.822677      -294.5000 
  20   2.0000     -10.822566      -294.4970 
  21   2.0000     -10.822367      -294.4916 
  22   2.0000     -10.821898      -294.4788 
  23   2.0000     -10.821849      -294.4775 
  24   2.0000     -10.821762      -294.4751 
  25   2.0000     -10.821460      -294.4669 
  26   2.0000     -10.821438      -294.4663 
  27   2.0000     -10.821175      -294.4591 
  28   2.0000     -10.821055      -294.4559 
  29   2.0000     -10.820754      -294.4477 
  30   2.0000     -10.820389      -294.4378 
  31   2.0000     -10.819142      -294.4038 
  32   2.0000     -10.818983      -294.3995 
  33   2.0000     -10.817515      -294.3595 
  34   2.0000      -1.103883       -30.0382 
  35   2.0000      -1.088300       -29.6141 
  36   2.0000      -1.063359       -28.9355 
  37   2.0000      -1.045193       -28.4412 
  38   2.0000      -1.035861       -28.1872 
  39   2.0000      -1.011860       -27.5341 
  40   2.0000      -0.994895       -27.0725 
  41   2.0000      -0.987866       -26.8812 
  42   2.0000      -0.966954       -26.3122 
  43   2.0000      -0.952010       -25.9055 
  44   2.0000      -0.922891       -25.1131 
  45   2.0000      -0.921162       -25.0661 
  46   2.0000      -0.917347       -24.9623 
  47   2.0000      -0.910841       -24.7853 
  48   2.0000      -0.896936       -24.4069 
  49   2.0000      -0.878151       -23.8957 
  50   2.0000      -0.855369       -23.2758 
  51   2.0000      -0.808474       -21.9997 
  52   2.0000      -0.786790       -21.4097 
  53   2.0000      -0.779085       -21.2000 
  54   2.0000      -0.775876       -21.1126 
  55   2.0000      -0.774424       -21.0732 
  56   2.0000      -0.764816       -20.8117 
  57   2.0000      -0.750052       -20.4100 
  58   2.0000      -0.730038       -19.8653 
  59   2.0000      -0.705070       -19.1859 
  60   2.0000      -0.681823       -18.5533 
  61   2.0000      -0.670852       -18.2548 
  62   2.0000      -0.663841       -18.0640 
  63   2.0000      -0.648065       -17.6347 
  64   2.0000      -0.643310       -17.5054 
  65   2.0000      -0.628682       -17.1073 
  66   2.0000      -0.621922       -16.9233 
  67   2.0000      -0.613768       -16.7015 
  68   2.0000      -0.606477       -16.5031 
  69   2.0000      -0.593410       -16.1475 
  70   2.0000      -0.582276       -15.8445 
  71   2.0000      -0.576317       -15.6824 
  72   2.0000      -0.565936       -15.3999 
  73   2.0000      -0.562544       -15.3076 
  74   2.0000      -0.546412       -14.8686 
  75   2.0000      -0.544992       -14.8300 
  76   2.0000      -0.539667       -14.6851 
  77   2.0000      -0.528906       -14.3923 
  78   2.0000      -0.527174       -14.3451 
  79   2.0000      -0.527056       -14.3419 
  80   2.0000      -0.523165       -14.2360 
  81   2.0000      -0.519472       -14.1355 
  82   2.0000      -0.513040       -13.9605 
  83   2.0000      -0.509069       -13.8525 
  84   2.0000      -0.501554       -13.6480 
  85   2.0000      -0.493881       -13.4392 
  86   2.0000      -0.483593       -13.1592 
  87   2.0000      -0.478836       -13.0298 
  88   2.0000      -0.475387       -12.9359 
  89   2.0000      -0.470392       -12.8000 
  90   2.0000      -0.463021       -12.5994 
  91   2.0000      -0.461786       -12.5658 
  92   2.0000      -0.455822       -12.4035 
  93   2.0000      -0.452477       -12.3125 
  94   2.0000      -0.436948       -11.8900 
  95   2.0000      -0.429763       -11.6944 
  96   2.0000      -0.425709       -11.5841 
  97   2.0000      -0.418405       -11.3854 
  98   2.0000      -0.408875       -11.1261 
  99   2.0000      -0.407248       -11.0818 
 100   2.0000      -0.391618       -10.6565 
 101   2.0000      -0.380442       -10.3523 
 102   2.0000      -0.358192        -9.7469 
 103   2.0000      -0.345791        -9.4095 
 104   2.0000      -0.311537        -8.4774 
 105   2.0000      -0.306266        -8.3339 
 106   2.0000      -0.300689        -8.1822 
 107   2.0000      -0.300445        -8.1755 
 108   2.0000      -0.276835        -7.5331 
 109   2.0000      -0.246758        -6.7146 
 110   2.0000      -0.215752        -5.8709 
 111   0.0000      -0.026431        -0.7192 
 112   0.0000       0.008504         0.2314 
 113   0.0000       0.032690         0.8895 
 114   0.0000       0.044364         1.2072 
 115   0.0000       0.055090         1.4991 
 116   0.0000       0.058749         1.5986 
 117   0.0000       0.063865         1.7379 
 118   0.0000       0.072214         1.9650 
 119   0.0000       0.076752         2.0885 
 120   0.0000       0.078034         2.1234 
 121   0.0000       0.086929         2.3655 
*Only the first 10 virtual orbitals were printed.
-------
TIMINGS
-------

Total SCF time: 0 days 0 hours 9 min 33 sec 

Total time                  ....     573.501 sec
Sum of individual times     ....     573.173 sec  ( 99.9%)

SCF preparation             ....      17.060 sec  (  3.0%)
Fock matrix formation       ....     508.273 sec  ( 88.6%)
  Startup                   ....       4.299 sec  (  0.8% of F)
  RI-JK                     ....     370.733 sec  ( 72.9% of F)
  XC integration            ....     123.231 sec  ( 24.2% of F)
    XC Preparation          ....       0.000 sec  (  0.0% of XC)
    Basis function eval.    ....       1.409 sec  (  1.1% of XC)
    Density eval.           ....       4.315 sec  (  3.5% of XC)
    XC-Functional eval.     ....       0.041 sec  (  0.0% of XC)
    XC-Potential eval.      ....       5.466 sec  (  4.4% of XC)
Diagonalization             ....       0.000 sec  (  0.0%)
Density matrix formation    ....       6.791 sec  (  1.2%)
Total Energy calculation    ....       3.459 sec  (  0.6%)
Population analysis         ....       0.000 sec  (  0.0%)
Orbital Transformation      ....       4.094 sec  (  0.7%)
Orbital Orthonormalization  ....       0.000 sec  (  0.0%)
DIIS solution               ....      25.722 sec  (  4.5%)
SOSCF solution              ....       7.437 sec  (  1.3%)
Finished LeanSCF after 574.6 sec

Maximum memory used throughout the entire LEANSCF-calculation: 1129.5 MB


           ************************************************************
           *        Program running with 104 parallel MPI-processes   *
           *              working on a common directory               *
           ************************************************************

------------------------------------------------------------------------------
                                ORCA  MP2 
------------------------------------------------------------------------------


-------------
RI-MP2 ENERGY
-------------
Dimension of the orbital basis            ... 2478
Dimension of the AuxC basis               ... 5802
Memory devoted to MP2                     ... 4096 MB   
Data format for matrix containers         ... DOUBLE
Compression type for matrix containers    ... UNCOMPRESSED
Scaling for aa/bb pairs                   ...   5.710e-02
Scaling for ab pairs                      ...   5.979e-01
Overall scaling of the MP2 energy         ...   1.000e+00

-----------------------
SHARK RI TRANSFORMATION
-----------------------

Number of basis functions                ...   2478
Number of aux functions                  ...   5802
Number of operators                      ...      1
Generation of IJK                        ... NO
Generation of IAK                        ... YES
Generation of ABK                        ... NO
Orbital Range Operator  0:    0- 110 to  111-2477

Aux basis identifier                     ...   AUXC
Contraction scheme used                  ... SEGMENTED
Do orthogonalization                     ... YES
All operator combinations                ... NO
Transpose (ia|K)                         ... NO
Integral generator used                  ... LIBINT
Starting integral generation + trafo... 
Half trafo (segmented) done. Total time = 13.2 sec. integrals=  2.7 sec trafo=  9.6 sec
Integral generation and half transformation done ( 13.2 sec)

Reading or making V^(-1/2)          ... done (  0.7 sec)
Sorting IAK integrals               ... done ( 15.3 sec)

SHARK RI integral transformation done. Total time = 29.4 sec.

Opening buffers                              ... done

Starting loop over batches of integrals:

Operator 0  - window                       ... (  0-110)x(111-2477)
Operator 0  - Memory available             ...  4096 MB
Operator 0  - Memory needed per MO         ... 104.8 MB
Operator 0  - Number of orbitals per batch ... 2
Operator 0  - Number of batches            ... 1

OPERATOR  0   PASS   0:  MOs     0 ...    1 +    2 ...    3 +    4 ...    5 +    6 ...    7
                            +    8 ...    9 +   10 ...   11 +   12 ...   13 +   14 ...   15
                            +   16 ...   17 +   18 ...   19 +   20 ...   21 +   22 ...   23
                            +   24 ...   25 +   26 ...   27 +   28 ...   29 +   30 ...   31
                            +   32 ...   33 +   34 ...   35 +   36 ...   37 +   38 ...   39
                            +   40 ...   41 +   42 ...   43 +   44 ...   45 +   46 ...   47
                            +   48 ...   49 +   50 ...   51 +   52 ...   53 +   54 ...   55
                            +   56 ...   57 +   58 ...   59 +   60 ...   61 +   62 ...   63
                            +   64 ...   65 +   66 ...   67 +   68 ...   69 +   70 ...   71
                            +   72 ...   73 +   74 ...   75 +   76 ...   77 +   78 ...   79
                            +   80 ...   81 +   82 ...   83 +   84 ...   85 +   86 ...   87
                            +   88 ...   89 +   90 ...   91 +   92 ...   93 +   94 ...   95
                            +   96 ...   97 +   98 ...   99 +  100 ...  101 +  102 ...  103
                            +  104 ...  105 +  106 ...  107 +  108 ...  109 +  110 ...  110
  Reading integrals       ... ok
Time spent in pair loops =   267.427 sec

-----------------------------------------------
 RI-MP2 CORRELATION ENERGY:     -3.345549596 Eh
-----------------------------------------------


-------
TIMINGS
-------

Total time                :  302.648 sec
Integral trafo            :   29.690 sec (  9.8%)
I/O of integrals          :    0.254 sec (  0.1%)
K(i,j) operators          :    3.559 sec (  1.2%)
T(i,j) pair energies      :    0.385 sec (  0.1%)
V**(-1/2)                 :    5.529 sec (  1.8%)


---------------------------------------
MP2 TOTAL ENERGY:    -1304.964581991 Eh
---------------------------------------

Maximum memory used throughout the entire MP2-calculation: 842.1 MB


-------------------------------------------------------------------------------
                          DFT DISPERSION CORRECTION                            
                                                                               
                                DFTD4 V3.4.0                                   
-------------------------------------------------------------------------------
The REV-DSD-PBEP86-2021 functional is recognized
A user input s6-coefficient scaling factor has been recognized
A user input a1-coefficient scaling factor has been recognized
A user input s8-coefficient scaling factor has been recognized
A user input a2-coefficient scaling factor has been recognized
A user input s9-coefficient scaling factor has been recognized
Active option DFTDOPT                   ...         5   

-------------------------   ----------------
Dispersion correction           -0.057515546
-------------------------   ----------------


-------------------------   --------------------
FINAL SINGLE POINT ENERGY     -1305.022097537270
-------------------------   --------------------



           ************************************************************
           *        Program running with 104 parallel MPI-processes   *
           *              working on a common directory               *
           ************************************************************

------------------------------------------------------------------------------
                              ORCA PROPERTY CALCULATIONS
------------------------------------------------------------------------------

GBWName                                 ... compas3x_hc_c34h18_0pent_1_qz_riri.gbw
Number of atoms                         ...     52
Number of basis functions               ...   2478
Max core memory                         ...   1024 MB

Electric properties:
Dipole moment                           ... YES
Quadrupole moment                       ...  NO
Static polarizability (Dipole/Dipole)   ...  NO
Static polarizability (Dipole/Quad.)    ...  NO
Static polarizability (Quad./Quad.)     ...  NO
Static polarizability (Velocity)        ...  NO

Atomic electric properties:
Dipole moment                           ...  NO
Quadrupole moment                       ...  NO
Static polarizability                   ...  NO

Choice of electric origin               ... Center of mass
Position of electric origin             ...     0.078842     0.005919    -0.020560

General magnetic properties:
Magnetizability                         ...  NO

EPR properties:
g-Tensor (aka g-matrix)                 ...  NO
Zero-Field splitting spin-orbit         ...  NO
Zero-field splitting spin-spin          ...  NO
Hyperfine couplings                     ...  NO (   0 nuclei)
Quadrupole couplings                    ...  NO (   0 nuclei)
Contact density                         ...  NO (   0 nuclei)

NMR properties:
Chemical shifts                         ...  NO (   0 nuclei)
Spin-rotation constants                 ...  NO (   0 nuclei)
Spin-spin couplings                     ...  NO (   0 nuclei,    0 pairs)

Choice of magnetic origin               ... GIAO
Position of magnetic origin             ...     0.000000     0.000000     0.000000

Properties with geometric perturbations:
SCF Hessian                             ...  NO
IR spectrum                             ...  NO
VCD spectrum                            ...  NO
X-ray spectroscopy properties:
SCF XES/XAS/RIXS spectra                ...  NO


-------------
DIPOLE MOMENT
-------------

Method             : SCF
Type of density    : Electron Density
Multiplicity       :   1
Irrep              :   0
Energy             : -1301.6190323953542247 Eh
Relativity type    : 
Basis              : AO
                                X                 Y                 Z
Electronic contribution:      2.125365862       0.175091221      -0.542954825
Nuclear contribution   :     -2.221837092      -0.169867386       0.577350710
                        -----------------------------------------
Total Dipole Moment    :     -0.096471231       0.005223835       0.034395885
                        -----------------------------------------
Magnitude (a.u.)       :      0.102552736
Magnitude (Debye)      :      0.260668340



--------------------
Rotational spectrum 
--------------------
 
Rotational constants in cm-1:             0.007830             0.003427             0.002526 
Rotational constants in MHz :           234.747667           102.745112            75.717037 

Dipole components along the rotational axes: 
x,y,z [a.u.] :     0.059819    -0.082526     0.011328 
x,y,z [Debye]:     0.152047    -0.209763     0.028794 

 

Dipole moment calculation done in   0.5 sec 

Maximum memory used throughout the entire PROP-calculation: 387.1 MB

--------------------------------
SUGGESTED CITATIONS FOR THIS RUN
--------------------------------

Below you find a list of papers that are relevant to this ORCA run
We neither can nor want to force you to cite these papers, but we appreciate if you do
You receive ORCA, which is the product of decades of hard work by many enthusiastic individuals, for free
The only thing we kindly ask in return is that you cite our papers,
We deeply appreciate it, if you show your appreciation for ORCA by not just citing the generic ORCA reference.

Please note that relegating all ORCA citations to the supporting information does *not* help us.
SI sections are not indexed - citations you put there will not count into any citation statistics
But we need these citations in order to attract the funding resources that allow us to do what we are doing

Therefore, if you are a happy ORCA user, please consider citing a few of the papers listed below in the main body of your paper

In addition to the list printed below, the program has created the file compas3x_hc_c34h18_0pent_1_qz_riri.bibtex that contains the list in bibtex format
You can import this file easily into all common literature databanks and citation aid programs


List of essential papers. We consider these as the minimum necessary citations

  1. Neese,F.
     Software update: the ORCA program system, version 5.0
     WIRES Comput. Molec. Sci., 2022 12(1)e1606
     doi.org/10.1002/wcms.1606

List of papers to cite with high priority. The work reported in these papers was absolutely
necessary for this run to complete.
Our perspective: the developers of density functionals and basis sets usually get cited in chemistry papers
Good! But without the algorithms to do something with them, the functionals or basis sets would not do anything.
Hence, in our opinion, the algorithm design and method developments papers are equally worthy of getting cited

  1. Neese,F.
     An improvement of the resolution of the identity approximation for the formation of the Coulomb matrix
     J. Comp. Chem., 2003 24(14)1740-1747
     doi.org/10.1002/jcc.10318
  2. Kossmann,S.; Neese,F.
     Comparison of two efficient approximate Hartee-Fock approaches
     Chem. Phys. Lett., 2009 481 240-243
     doi.org/10.1016/j.cplett.2009.09.073
  3. Neese,F.
     The SHARK Integral Generation and Digestion System
     J. Comp. Chem., 2022  1-16
     doi.org/10.1002/jcc.26942
  4. Caldeweyher,E.; Bannwarth,C.; Grimme,S.
     Extension of the D3 dispersion coefficient model
     J. Chem. Phys., 2017 147 034112
     doi.org/10.1063/1.4993215
  5. Caldeweyher,E.; Ehlert,S.; Hansen,A.; Neugebauer,H.; Spicher,S.; Bannwarth,C.; Grimme,S.
     A generally applicable atomic-charge dependent London dispersion correction
     J. Chem. Phys., 2019 150 154122
     doi.org/10.1063/1.5090222
  6. Caldeweyher,E.; Mewes,J.; Ehlert,S.; Grimme,S.
     Extension and evaluation of the D4 London-dispersion model for periodic systems
     Phys. Chem. Chem. Phys., 2020 22(16)8499-8512
     doi.org/10.1039/D0CP00502A
  7. Wittmann,L.; Gordiy,I.; Friede,M.; Helmich-Paris,B.; Grimme,S.; Hansen,A.; Bursch,M.
     Extension of the D3 and D4 London Dispersion Corrections to the full Actinides Series
     Phys. Chem. Chem. Phys., 2024 26(32)21379-21394
     doi.org/https://doi.org/10.1039/D4CP01514B 

List of suggested additional citations. These are papers that are important in the 'surrounding' of 
of this run, or papers that preceded the highly important papers. If you like your results we are grateful for a citation.

  1. Neese,F.
     The ORCA program system
     WIRES Comput. Molec. Sci., 2012 2(1)73-78
     doi.org/10.1002/wcms.81
  2. Neese,F.
     Software update: the ORCA program system, version 4.0
     WIRES Comput. Molec. Sci., 2018 8(1)1-6
     doi.org/10.1002/wcms.1327
  3. Neese,F.; Wennmohs,F.; Becker,U.; Riplinger,C.
     The ORCA quantum chemistry program package
     J. Chem. Phys., 2020 152 Art. No. L224108
     doi.org/10.1063/5.0004608

List of optional additional citations

  1. Neese,F.
     Approximate second-order SCF convergence for spin unrestricted wavefunctions
     Chem. Phys. Lett., 2000 325(1-3)93-98
     doi.org/10.1016/s0009-2614(00)00662-x

Timings for individual modules:

Sum of individual times          ...     1078.227 sec (=  17.970 min)
Startup calculation              ...      136.805 sec (=   2.280 min)  12.7 %
SCF iterations                   ...      600.054 sec (=  10.001 min)  55.7 %
Property calculations            ...       18.402 sec (=   0.307 min)   1.7 %
MP2 module                       ...      322.965 sec (=   5.383 min)  30.0 %
                             ****ORCA TERMINATED NORMALLY****
TOTAL RUN TIME: 0 days 0 hours 19 minutes 47 seconds 392 msec
