
                                 *****************
                                 * O   R   C   A *
                                 *****************

                                            #,                                       
                                            ###                                      
                                            ####                                     
                                            #####                                    
                                            ######                                   
                                           ########,                                 
                                     ,,################,,,,,                         
                               ,,#################################,,                 
                          ,,##########################################,,             
                       ,#########################################, ''#####,          
                    ,#############################################,,   '####,        
                  ,##################################################,,,,####,       
                ,###########''''           ''''###############################       
              ,#####''   ,,,,##########,,,,          '''####'''          '####       
            ,##' ,,,,###########################,,,                        '##       
           ' ,,###''''                  '''############,,,                           
         ,,##''                                '''############,,,,        ,,,,,,###''
      ,#''                                            '''#######################'''  
     '                                                          ''''####''''         
             ,#######,   #######,   ,#######,      ##                                
            ,#'     '#,  ##    ##  ,#'     '#,    #''#        ,####,   ,####,        
            ##       ##  ##   ,#'  ##            #'  '#       #'       #'  '#        
            ##       ##  #######   ##           ,######,      #####,   #    #        
            '#,     ,#'  ##    ##  '#,     ,#' ,#      #,     #,   #   #,  ,#        
             '#######'   ##     ##  '#######'  #'      '#     '####' # '####'        



                #########################################################
                #                        -***-                          #
                #          Department of theory and spectroscopy        #
                #                                                       #
                #                      Frank Neese                      #
                #                                                       #
                #     Directorship, Architecture, Infrastructure        #
                #                    SHARK, DRIVERS                     #
                #        Core code/Algorithms in most modules           #
                #                                                       #
                #        Max Planck Institute fuer Kohlenforschung      #
                #                Kaiser Wilhelm Platz 1                 #
                #                 D-45470 Muelheim/Ruhr                 #
                #                      Germany                          #
                #                                                       #
                #                  All rights reserved                  #
                #                        -***-                          #
                #########################################################


                         Program Version 6.0.1  -  RELEASE   -


 With contributions from (in alphabetic order):
[Max-Planck-Institut fuer Kohlenforschung]                               
  Daniel Aravena         : Magnetic Suceptibility                        
  Michael Atanasov       : Ab Initio Ligand Field Theory (pilot matlab implementation)
  Alexander A. Auer      : GIAO ZORA, VPT2 properties, NMR spectrum      
  Ute Becker             : All parallelization in ORCA, NUMFREQ, NUMCALC 
  Giovanni Bistoni       : ED, misc. LED, open-shell LED, HFLD           
  Martin Brehm           : Molecular dynamics                            
  Dmytro Bykov           : pre 5.0 version of the SCF Hessian            
  Marcos Casanova-Páez   : Triplet and SCS-CIS(D). UHF-(DLPNO)-IP/EA/STEOM-CCSD. UHF-CVS-IP/STEOM-CCSD   
  Vijay G. Chilkuri      : MRCI spin determinant printing, contributions to CSF-ICE 
  Pauline Colinet        : FMM embedding                                 
  Dipayan Datta          : RHF DLPNO-CCSD density                        
  Achintya Kumar Dutta   : EOM-CC, STEOM-CC                              
  Nicolas Foglia         : Exact transition moments, OPA infrastructure, MCD improvements    
  Dmitry Ganyushin       : Spin-Orbit,Spin-Spin,Magnetic field MRCI      
  Miquel Garcia-Rates    : C-PCM and meta-GGA Hessian, CCSD/C-PCM, Gaussian charge scheme 
  Tiago L. C. Gouveia    : GS-ROHF, GS-ROCIS                             
  Yang Guo               : DLPNO-NEVPT2, F12-NEVPT2, CIM, IAO-localization        
  Andreas Hansen         : Spin unrestricted coupled pair/coupled cluster methods 
  Ingolf Harden          : AUTO-CI MPn and infrastructure                
  Benjamin Helmich-Paris : MC-RPA, TRAH-(SCF,CASSCF), AVAS, COSX integrals, SCF dyn. polar. 
  Lee Huntington         : MR-EOM, pCC                                   
  Robert Izsak           : Overlap fitted RIJCOSX, COSX-SCS-MP3, EOM     
  Riya Kayal             : Wick's Theorem for AUTO-CI, AUTO-CI UHF-CCSDT 
  Emily Kempfer          : AUTO-CI, RHF CISDT and CCSDT                  
  Christian Kollmar      : KDIIS, OOCD, Brueckner-CCSD(T), CCSD density, CASPT2, CASPT2-K, improved NEVPT2 
  Axel Koslowski         : Symmetry handling                             
  Simone Kossmann        : meta-GGA functionals, TD-DFT gradient, OOMP2, (MP2 Hessian; deprecated post 5.0) 
  Lucas Lang             : DCDCAS                                        
  Marvin Lechner         : AUTO-CI (C++ implementation), FIC-MRCC        
  Spencer Leger          : CASSCF response                               
  Dagmar Lenk            : GEPOL surface, SMD, ORCA-2-JSON               
  Dimitrios Liakos       : Extrapolation schemes; Compound Job, initial MDCI parallelization 
  Dimitrios Manganas     : Further ROCIS development; embedding schemes. LFT, Crystal Embedding 
  Dimitrios Pantazis     : SARC Basis sets                               
  Anastasios Papadopoulos: AUTO-CI, single reference methods and gradients 
  Taras Petrenko         : pre 6.0 DFT Hessian and TD-DFT gradient, (ASA, deprecated), ECA, 1-Electron XAS/XES, NRVS 
  Peter Pinski           : DLPNO-MP2, DLPNO-MP2 Gradient                 
  Christoph Reimann      : Effective Core Potentials                     
  Marius Retegan         : Local ZFS, SOC                                
  Christoph Riplinger    : Optimizer, TS searches, QM/MM, DLPNO-CCSD(T), (RO)-DLPNO pert. Triples 
  Michael Roemelt        : Original ROCIS implementation                 
  Masaaki Saitow         : Open-shell DLPNO-CCSD energy and density      
  Barbara Sandhoefer     : DKH picture change effects                    
  Kantharuban Sivalingam : CASSCF convergence/infrastructure, NEVPT2 and variants, FIC-MRCI 
  Bernardo de Souza      : ESD, SOC TD-DFT                               
  Georgi L. Stoychev     : AutoAux, RI-MP2 NMR, DLPNO-MP2 response, X2C  
  Van Anh Tran           : RI-MP2 g-tensors                              
  Willem Van den Heuvel  : Paramagnetic NMR                              
  Zikuan Wang            : NOTCH, Electric field optimization            
  Frank Wennmohs         : Technical directorship and infrastructure     
  Hang Xu                : AUTO-CI-Response properties                   
                                                                         
[FACCTs GmbH]                                                            
  Markus Bursch, Miquel Garcia-Rates, Christoph Riplinger, Bernardo de Souza, Georgi L. Stoychev 
                                                                 
  APM, Basis sets (HGBS, AHGBS, def-TZVP (Ac-Lr), def2-XVPD (La-Lu)), CI-OPT, improved COSX, DLPNO-Multilevel,           
  DOCKER, DRACO, updates on ESD, GOAT, IRC, LR-CPCM, MBIS, meta-GGA TD-DFT gradient, ML-optimized integration grids, 
  MM, NACMEs, nearIR, NEB, NEB-TS, NL-DFT gradient (VV10), 2- and 3-layer-ONIOM, interface openCOSMO-RS, QMMM,   
  Crystal-QMMM, SF, symmetry and pop. for TD-DFT, r2SCAN hybrids, SOLVATOR                                   
                                                                         
[Other institutions]                                                     
  V. Asgeirsson          : NEB                                           
  Christoph Bannwarth    : sTDA-DFT, sTD-DFT, PBEh-3c, B97-3c, D3        
  Sebastian Ehlert       : rSCAN, r2SCAN, r2SCAN-3c, D4, dhf basis sets  
  Marvin Friede          : D4 for Fr, Ra, Ac-Lr                          
  Lars Goerigk           : TD-DFT with DH, B97 family of functionals     
  Stefan Grimme          : VdW corrections, initial TS optimization, DFT functionals, gCP, sTDA/sTD-DF 
  Waldemar Hujo          : DFT-NL                                        
  H. Jonsson             : NEB                                           
  Holger Kruse           : gCP                                           
  Marcel Mueller         : wB97X-3c, vDZP basis set                      
  Hagen Neugebauer       : wr2SCAN                                       
  Tobias Risthaus        : range-separated hybrid DFT                    
  Lukas Wittmann         : regularized MP2, r2SCAN double-hybrids, wr2SCAN        
                                                                         
We gratefully acknowledge several colleagues who have allowed us to      
interface, adapt or use parts of their codes:                            
  Ed Valeev, F. Pavosevic, A. Kumar             : LibInt (2-el integral package), F12 methods 
  Garnet Chan, S. Sharma, J. Yang, R. Olivares  : DMRG                   
  Ulf Ekstrom                                   : XCFun DFT Library      
  Mihaly Kallay                                 : mrcc  (arbitrary order and MRCC methods)
  Frank Weinhold                                : gennbo (NPA and NBO analysis)           
  Simon Mueller                                 : openCOSMO-RS                            
  Christopher J. Cramer and Donald G. Truhlar   : smd solvation model                     
  S Lehtola, MJT Oliveira, MAL Marques          : LibXC Library                           
  Liviu Ungur et al                             : ANISO software                          


 Your calculation uses the libint2 library for the computation of 2-el integrals
 For citations please refer to: http://libint.valeyev.net

 Your ORCA version has been built with support for libXC version: 6.2.2
 For citations please refer to: https://libxc.gitlab.io

 This ORCA versions uses:
   CBLAS   interface :  Fast vector & matrix operations
   LAPACKE interface :  Fast linear algebra routines
   SCALAPACK package :  Parallel linear algebra routines
   Shared memory     :  Shared parallel matrices
   BLAS/LAPACK       :  OpenBLAS 0.3.27  USE64BITINT DYNAMIC_ARCH NO_AFFINITY SapphireRapids SINGLE_THREADED
        Core in use  :  SapphireRapids
   Copyright (c) 2011-2014, The OpenBLAS Project




***************************************
The coordinates will be read from file: /scratch/kx58/rs2200/dhdft/inputs/compas3x-xyzs/hc_c24h14_0pent_11.xyz
***************************************


Your calculation utilizes the atom-pairwise dispersion correction
based on EEQ partial charges (D4)


Warning: RI is on but no J-basis has been assigned. Assigning Def2/J (nothing to worry about!)
================================================================================

----- Orbital basis set information -----
Your calculation utilizes the basis: def2-TZVP
   F. Weigend and R. Ahlrichs, Phys. Chem. Chem. Phys. 7, 3297 (2005).

----- AuxJ basis set information -----
Your calculation utilizes the auxiliary basis: def2/J
   F. Weigend, Phys. Chem. Chem. Phys. 8, 1057 (2006).

----- AuxC basis set information -----
Your calculation utilizes the auxiliary basis: def2-TZVP/C
  H-La, Hf-Rn : A. Hellweg, C. Hattig, S. Hofener and W. Klopper, Theor. Chem. Acc. 117, 587 (2007).
        Ce-Lu : J. Chmela and M. E. Harding, Mol. Phys. (2018).

================================================================================
                                        WARNINGS
                       Please study these warnings very carefully!
================================================================================


WARNING: No MP2 level density has been requested!
         To calculate MP2 level properties use
         %mp2 Density relaxed end
         or
         %mp2 Density unrelaxed end
         Otherwise for double-hybrid DFT only the energy is correct!

================================================================================
                                       INPUT FILE
================================================================================
NAME = compas3x_hc_c24h14_0pent_11_tz_ri.inp
|  1> ! RKS revDSD-PBEP86-D4/2021 defgrid3  NOPOP NoFrozencore NoUseSym
|  2> 
|  3> %basis
|  4> Basis "def2-TZVP"
|  5> 
|  6> AuxC "def2-TZVP/C"
|  7> end
|  8> 
|  9> %method
| 10> ScalHFX 0.69
| 11> ScalDFX 0.31
| 12> ScalDFC 0.4038
| 13> ScalLDAC 0.4038
| 14> 
| 15> D4S6 0.4612
| 16> D4S8 0.0
| 17> D4A1 0.44
| 18> D4A2 3.60
| 19> end
| 20> 
| 21> %mp2
| 22> PS 0.5979
| 23> PT 0.0571
| 24> end
| 25> 
| 26> %pal
| 27> nprocs 104
| 28> end
| 29> 
| 30> *XYZFILE 0 1 /scratch/kx58/rs2200/dhdft/inputs/compas3x-xyzs/hc_c24h14_0pent_11.xyz
| 31> 
| 32>                          ****END OF INPUT****
================================================================================

                       ****************************
                       * Single Point Calculation *
                       ****************************

---------------------------------
CARTESIAN COORDINATES (ANGSTROEM)
---------------------------------
  C      2.370224   -0.940113   -0.128430
  C      1.524078   -2.073359   -0.008790
  C      0.121266   -1.910259    0.106832
  C     -0.449101   -0.569175    0.041001
  C      0.448893    0.569010    0.042274
  C      1.791979    0.359351   -0.073793
  C      3.741266   -1.118326   -0.264474
  C      4.297491   -2.394450   -0.278018
  C      3.497992   -3.500794   -0.142682
  C      2.100730   -3.368671    0.000194
  C      1.262327   -4.488752    0.154559
  C     -0.088812   -4.319630    0.306730
  C     -0.655215   -3.046499    0.285130
  C     -1.792043   -0.359233   -0.076332
  C     -2.370075    0.940352   -0.130811
  C     -1.524020    2.073426   -0.008926
  C     -0.121468    1.910023    0.109139
  C     -3.740867    1.118883   -0.268952
  C     -4.296828    2.395125   -0.282869
  C     -3.497412    3.501278   -0.145451
  C     -2.100465    3.368825    0.000130
  C     -1.262189    4.488590    0.157488
  C      0.088542    4.319051    0.312821
  C      0.654795    3.045858    0.290905
  H      2.476586    1.191131   -0.141521
  H      4.381124   -0.252163   -0.355684
  H      5.366361   -2.507752   -0.388549
  H      3.927240   -4.492355   -0.142324
  H      1.700950   -5.476061    0.160874
  H     -0.730701   -5.177939    0.444592
  H     -1.721803   -2.964299    0.422642
  H     -2.476730   -1.190827   -0.145510
  H     -4.380762    0.252899   -0.361605
  H     -5.365472    2.508675   -0.395318
  H     -3.926501    4.492907   -0.145371
  H     -1.700626    5.475981    0.163765
  H      0.730228    5.177074    0.453375
  H      1.721020    2.963218    0.430959

----------------------------
CARTESIAN COORDINATES (A.U.)
----------------------------
  NO LB      ZA    FRAG     MASS         X           Y           Z
   0 C     6.0000    0    12.011    4.479075   -1.776556   -0.242698
   1 C     6.0000    0    12.011    2.880090   -3.918081   -0.016610
   2 C     6.0000    0    12.011    0.229160   -3.609867    0.201884
   3 C     6.0000    0    12.011   -0.848679   -1.075586    0.077481
   4 C     6.0000    0    12.011    0.848286    1.075272    0.079886
   5 C     6.0000    0    12.011    3.386349    0.679074   -0.139449
   6 C     6.0000    0    12.011    7.069968   -2.113329   -0.499784
   7 C     6.0000    0    12.011    8.121081   -4.524854   -0.525377
   8 C     6.0000    0    12.011    6.610246   -6.615542   -0.269630
   9 C     6.0000    0    12.011    3.969805   -6.365866    0.000366
  10 C     6.0000    0    12.011    2.385452   -8.482513    0.292074
  11 C     6.0000    0    12.011   -0.167830   -8.162919    0.579636
  12 C     6.0000    0    12.011   -1.238177   -5.757049    0.538817
  13 C     6.0000    0    12.011   -3.386470   -0.678851   -0.144247
  14 C     6.0000    0    12.011   -4.478792    1.777008   -0.247197
  15 C     6.0000    0    12.011   -2.879981    3.918207   -0.016867
  16 C     6.0000    0    12.011   -0.229542    3.609421    0.206243
  17 C     6.0000    0    12.011   -7.069215    2.114382   -0.508245
  18 C     6.0000    0    12.011   -8.119828    4.526131   -0.534546
  19 C     6.0000    0    12.011   -6.609151    6.616456   -0.274863
  20 C     6.0000    0    12.011   -3.969304    6.366157    0.000246
  21 C     6.0000    0    12.011   -2.385192    8.482205    0.297609
  22 C     6.0000    0    12.011    0.167320    8.161823    0.591146
  23 C     6.0000    0    12.011    1.237382    5.755838    0.549730
  24 H     1.0000    0     1.008    4.680070    2.250911   -0.267437
  25 H     1.0000    0     1.008    8.279124   -0.476518   -0.672146
  26 H     1.0000    0     1.008   10.140953   -4.738964   -0.734251
  27 H     1.0000    0     1.008    7.421408   -8.489320   -0.268953
  28 H     1.0000    0     1.008    3.214329  -10.348256    0.304007
  29 H     1.0000    0     1.008   -1.380824   -9.784886    0.840158
  30 H     1.0000    0     1.008   -3.253735   -5.601713    0.798677
  31 H     1.0000    0     1.008   -4.680341   -2.250338   -0.274973
  32 H     1.0000    0     1.008   -8.278441    0.477911   -0.683334
  33 H     1.0000    0     1.008  -10.139273    4.740709   -0.747043
  34 H     1.0000    0     1.008   -7.420012    8.490364   -0.274711
  35 H     1.0000    0     1.008   -3.213718   10.348105    0.309471
  36 H     1.0000    0     1.008    1.379931    9.783252    0.856754
  37 H     1.0000    0     1.008    3.252257    5.599671    0.814394

--------------------------------
INTERNAL COORDINATES (ANGSTROEM)
--------------------------------
 C      0   0   0     0.000000000000     0.00000000     0.00000000
 C      1   0   0     1.419339175715     0.00000000     0.00000000
 C      2   1   0     1.416986744296   120.34245955     0.00000000
 C      3   2   1     1.458821004199   119.28793364     2.74407617
 C      4   3   2     1.449779768610   118.65283887   351.69449366
 C      5   4   3     1.364297090366   119.27810995     8.60071258
 C      1   2   3     1.389252372882   119.61519002   181.12406082
 C      7   1   2     1.392143048902   120.85387644   359.66158325
 C      8   7   1     1.371682788457   120.36474536   359.31986960
 C      9   8   7     1.410747900298   120.77998460     0.57505836
 C     10   9   8     1.407597539235   121.77029414   180.67833551
 C     11  10   9     1.370158321813   120.08727055   179.21424119
 C      3   2   1     1.387715266643   118.04603739   183.00984755
 C      4   3   2     1.364307380743   122.01893089   168.96337239
 C     14   4   3     1.423379433537   122.92420598   179.45167022
 C     15  14   4     1.419338203221   118.91568347   357.60443533
 C     16  15  14     1.416965760368   120.33947008     2.58722865
 C     15  14   4     1.389254659086   121.45568644   179.10929965
 C     18  15  14     1.392149809792   120.85382999   178.16811994
 C     19  18  15     1.371685534233   120.36678639   359.30113232
 C     20  19  18     1.410744094403   120.77867705     0.56804036
 C     21  20  19     1.407600922962   121.77318464   180.71792758
 C     22  21  20     1.370162639571   120.08798198   179.18520928
 C     17  16  15     1.387711712689   118.04851524   183.07329896
 H      6   5   4     1.079413233056   120.75030426   175.91015053
 H      7   1   2     1.080729398173   119.32439054   179.97136112
 H      8   7   1     1.080526476760   119.49520196   179.78295603
 H      9   8   7     1.080484250962   120.57445014   180.64469853
 H     11  10   9     1.080374317884   119.07895069   359.82162714
 H     12  11  10     1.080611106264   120.12503470   181.19433273
 H     13   3   2     1.078552648782   120.48485049   177.20553099
 H     14   4   3     1.079412887556   120.75306662   358.68601030
 H     18  15  14     1.080729703085   119.32601741   358.47259604
 H     19  18  15     1.080527350673   119.49452295   179.76627361
 H     20  19  18     1.080484592281   120.57491563   180.64538051
 H     22  21  20     1.080374508219   119.07907229   359.80505650
 H     23  22  21     1.080611159599   120.12535854   181.21915158
 H     24  17  16     1.078555532470   120.48302654   177.16699699

---------------------------
INTERNAL COORDINATES (A.U.)
---------------------------
 C      0   0   0     0.000000000000     0.00000000     0.00000000
 C      1   0   0     2.682162333247     0.00000000     0.00000000
 C      2   1   0     2.677716882116   120.34245955     0.00000000
 C      3   2   1     2.756772176349   119.28793364     2.74407617
 C      4   3   2     2.739686717172   118.65283887   351.69449366
 C      5   4   3     2.578147866098   119.27810995     8.60071258
 C      1   2   3     2.625306515647   119.61519002   181.12406082
 C      7   1   2     2.630769101667   120.85387644   359.66158325
 C      8   7   1     2.592104812796   120.36474536   359.31986960
 C      9   8   7     2.665927175568   120.77998460     0.57505836
 C     10   9   8     2.659973855936   121.77029414   180.67833551
 C     11  10   9     2.589223988340   120.08727055   179.21424119
 C      3   2   1     2.622401805817   118.04603739   183.00984755
 C      4   3   2     2.578167312092   122.01893089   168.96337239
 C     14   4   3     2.689797314042   122.92420598   179.45167022
 C     15  14   4     2.682160495499   118.91568347   357.60443533
 C     16  15  14     2.677677228239   120.33947008     2.58722865
 C     15  14   4     2.625310835946   121.45568644   179.10929965
 C     18  15  14     2.630781877897   120.85382999   178.16811994
 C     19  18  15     2.592110001562   120.36678639   359.30113232
 C     20  19  18     2.665919983468   120.77867705     0.56804036
 C     21  20  19     2.659980250252   121.77318464   180.71792758
 C     22  21  20     2.589232147721   120.08798198   179.18520928
 C     17  16  15     2.622395089817   118.04851524   183.07329896
 H      6   5   4     2.039795395806   120.75030426   175.91015053
 H      7   1   2     2.042282587424   119.32439054   179.97136112
 H      8   7   1     2.041899121527   119.49520196   179.78295603
 H      9   8   7     2.041819326333   120.57445014   180.64469853
 H     11  10   9     2.041611582923   119.07895069   359.82162714
 H     12  11  10     2.042059048113   120.12503470   181.19433273
 H     13   3   2     2.038169127213   120.48485049   177.20553099
 H     14   4   3     2.039794742906   120.75306662   358.68601030
 H     18  15  14     2.042283163624   119.32601741   358.47259604
 H     19  18  15     2.041900772983   119.49452295   179.76627361
 H     20  19  18     2.041819971332   120.57491563   180.64538051
 H     22  21  20     2.041611942603   119.07907229   359.80505650
 H     23  22  21     2.042059148902   120.12535854   181.21915158
 H     24  17  16     2.038174576594   120.48302654   177.16699699

---------------------
BASIS SET INFORMATION
---------------------
There are 2 groups of distinct atoms

 Group   1 Type C   : 11s6p2d1f contracted to 5s3p2d1f pattern {62111/411/11/1}
 Group   2 Type H   : 5s1p contracted to 3s1p pattern {311/1}

Atom   0C    basis set group =>   1
Atom   1C    basis set group =>   1
Atom   2C    basis set group =>   1
Atom   3C    basis set group =>   1
Atom   4C    basis set group =>   1
Atom   5C    basis set group =>   1
Atom   6C    basis set group =>   1
Atom   7C    basis set group =>   1
Atom   8C    basis set group =>   1
Atom   9C    basis set group =>   1
Atom  10C    basis set group =>   1
Atom  11C    basis set group =>   1
Atom  12C    basis set group =>   1
Atom  13C    basis set group =>   1
Atom  14C    basis set group =>   1
Atom  15C    basis set group =>   1
Atom  16C    basis set group =>   1
Atom  17C    basis set group =>   1
Atom  18C    basis set group =>   1
Atom  19C    basis set group =>   1
Atom  20C    basis set group =>   1
Atom  21C    basis set group =>   1
Atom  22C    basis set group =>   1
Atom  23C    basis set group =>   1
Atom  24H    basis set group =>   2
Atom  25H    basis set group =>   2
Atom  26H    basis set group =>   2
Atom  27H    basis set group =>   2
Atom  28H    basis set group =>   2
Atom  29H    basis set group =>   2
Atom  30H    basis set group =>   2
Atom  31H    basis set group =>   2
Atom  32H    basis set group =>   2
Atom  33H    basis set group =>   2
Atom  34H    basis set group =>   2
Atom  35H    basis set group =>   2
Atom  36H    basis set group =>   2
Atom  37H    basis set group =>   2
---------------------------------
AUXILIARY/J BASIS SET INFORMATION
---------------------------------
There are 2 groups of distinct atoms

 Group   1 Type C   : 12s5p4d2f1g contracted to 6s4p3d1f1g pattern {711111/2111/211/2/1}
 Group   2 Type H   : 5s2p1d contracted to 3s1p1d pattern {311/2/1}

Atom   0C    basis set group =>   1
Atom   1C    basis set group =>   1
Atom   2C    basis set group =>   1
Atom   3C    basis set group =>   1
Atom   4C    basis set group =>   1
Atom   5C    basis set group =>   1
Atom   6C    basis set group =>   1
Atom   7C    basis set group =>   1
Atom   8C    basis set group =>   1
Atom   9C    basis set group =>   1
Atom  10C    basis set group =>   1
Atom  11C    basis set group =>   1
Atom  12C    basis set group =>   1
Atom  13C    basis set group =>   1
Atom  14C    basis set group =>   1
Atom  15C    basis set group =>   1
Atom  16C    basis set group =>   1
Atom  17C    basis set group =>   1
Atom  18C    basis set group =>   1
Atom  19C    basis set group =>   1
Atom  20C    basis set group =>   1
Atom  21C    basis set group =>   1
Atom  22C    basis set group =>   1
Atom  23C    basis set group =>   1
Atom  24H    basis set group =>   2
Atom  25H    basis set group =>   2
Atom  26H    basis set group =>   2
Atom  27H    basis set group =>   2
Atom  28H    basis set group =>   2
Atom  29H    basis set group =>   2
Atom  30H    basis set group =>   2
Atom  31H    basis set group =>   2
Atom  32H    basis set group =>   2
Atom  33H    basis set group =>   2
Atom  34H    basis set group =>   2
Atom  35H    basis set group =>   2
Atom  36H    basis set group =>   2
Atom  37H    basis set group =>   2
---------------------------------
AUXILIARY/C BASIS SET INFORMATION
---------------------------------
There are 2 groups of distinct atoms

 Group   1 Type C   : 8s6p5d3f1g contracted to 8s6p4d3f1g pattern {11111111/111111/2111/111/1}
 Group   2 Type H   : 4s3p2d contracted to 4s2p1d pattern {1111/21/2}

Atom   0C    basis set group =>   1
Atom   1C    basis set group =>   1
Atom   2C    basis set group =>   1
Atom   3C    basis set group =>   1
Atom   4C    basis set group =>   1
Atom   5C    basis set group =>   1
Atom   6C    basis set group =>   1
Atom   7C    basis set group =>   1
Atom   8C    basis set group =>   1
Atom   9C    basis set group =>   1
Atom  10C    basis set group =>   1
Atom  11C    basis set group =>   1
Atom  12C    basis set group =>   1
Atom  13C    basis set group =>   1
Atom  14C    basis set group =>   1
Atom  15C    basis set group =>   1
Atom  16C    basis set group =>   1
Atom  17C    basis set group =>   1
Atom  18C    basis set group =>   1
Atom  19C    basis set group =>   1
Atom  20C    basis set group =>   1
Atom  21C    basis set group =>   1
Atom  22C    basis set group =>   1
Atom  23C    basis set group =>   1
Atom  24H    basis set group =>   2
Atom  25H    basis set group =>   2
Atom  26H    basis set group =>   2
Atom  27H    basis set group =>   2
Atom  28H    basis set group =>   2
Atom  29H    basis set group =>   2
Atom  30H    basis set group =>   2
Atom  31H    basis set group =>   2
Atom  32H    basis set group =>   2
Atom  33H    basis set group =>   2
Atom  34H    basis set group =>   2
Atom  35H    basis set group =>   2
Atom  36H    basis set group =>   2
Atom  37H    basis set group =>   2


           ************************************************************
           *        Program running with 104 parallel MPI-processes   *
           *              working on a common directory               *
           ************************************************************
------------------------------------------------------------------------------
                             ORCA STARTUP CALCULATIONS
                           -- RI-GTO INTEGRALS CHOSEN --
------------------------------------------------------------------------------
------------------------------------------------------------------------------
                   ___                                                        
                  /   \      - P O W E R E D   B Y -                         
                 /     \                                                     
                 |  |  |   _    _      __       _____    __    __             
                 |  |  |  | |  | |    /  \     |  _  \  |  |  /  |          
                  \  \/   | |  | |   /    \    | | | |  |  | /  /          
                 / \  \   | |__| |  /  /\  \   | |_| |  |  |/  /          
                |  |  |   |  __  | /  /__\  \  |    /   |      \           
                |  |  |   | |  | | |   __   |  |    \   |  |\   \          
                \     /   | |  | | |  |  |  |  | |\  \  |  | \   \       
                 \___/    |_|  |_| |__|  |__|  |_| \__\ |__|  \__/        
                                                                              
                      - O R C A' S   B I G   F R I E N D -                    
                                      &                                       
                       - I N T E G R A L  F E E D E R -                       
                                                                              
 v1 FN, 2020, v2 2021, v3 2022-2024                                           
------------------------------------------------------------------------------


----------------------
SHARK INTEGRAL PACKAGE
----------------------

Number of atoms                             ...     38
Number of basis functions                   ...    828
Number of shells                            ...    320
Maximum angular momentum                    ...      3
Integral batch strategy                     ... SHARK/LIBINT Hybrid
RI-J (if used) integral strategy            ... SPLIT-RIJ (Revised 2003 algorithm where possible)
Printlevel                                  ...      1
Contraction scheme used                     ... SEGMENTED contraction
Prescreening option                         ... SCHWARTZ
   Thresh                                   ... 1.000e-10
   Tcut                                     ... 1.000e-11
   Tpresel                                  ... 1.000e-11 
Coulomb Range Separation                    ... NOT USED
Exchange Range Separation                   ... NOT USED
Multipole approximations                    ... NOT USED
Finite Nucleus Model                        ... NOT USED
CABS basis                                  ... NOT available
Auxiliary Coulomb fitting basis             ... AVAILABLE
   # of basis functions in Aux-J            ...   1330
   # of shells in Aux-J                     ...    430
   Maximum angular momentum in Aux-J        ...      4
Auxiliary J/K fitting basis                 ... NOT available
Auxiliary Correlation fitting basis         ... AVAILABLE
   # of basis functions in Aux-C            ...   2034
   # of shells in Aux-C                     ...    626
   Maximum angular momentum in Aux-C        ...      4
Auxiliary 'external' fitting basis          ... NOT available

Checking pre-screening integrals            ... done (  0.0 sec) Dimension = 320
Check shell pair data                       ... done (  0.0 sec)
Shell pair information
Shell pair cut-off parameter TPreSel        ...   1.0e-11
Total number of shell pairs                 ...     51360
Shell pairs after pre-screening             ...     35846
Total number of primitive shell pairs       ...    159900
Primitive shell pairs kept                  ...     74140
          la=0 lb=0:   8605 shell pairs
          la=1 lb=0:  10176 shell pairs
          la=1 lb=1:   2957 shell pairs
          la=2 lb=0:   5294 shell pairs
          la=2 lb=1:   3096 shell pairs
          la=2 lb=2:    823 shell pairs
          la=3 lb=0:   2476 shell pairs
          la=3 lb=1:   1464 shell pairs
          la=3 lb=2:    758 shell pairs
          la=3 lb=3:    197 shell pairs

Calculating one electron integrals          ... done (  0.8 sec)
Calculating RI/J V-Matrix + Cholesky decomp.... done (  0.4 sec)
Calculating RI/C V-Matrix + Cholesky decomp.... done (  0.5 sec)
Calculating Nuclear repulsion               ... done (  0.0 sec) ENN=   1791.765427546931 Eh

Diagonalization of the overlap matrix:
Smallest eigenvalue                        ... 3.109e-06
Time for diagonalization                   ...    0.116 sec
Threshold for overlap eigenvalues          ... 1.000e-07
Number of eigenvalues below threshold      ... 0
Time for construction of square roots      ...    0.055 sec
Total time needed                          ...    0.202 sec

-------------------
DFT GRID GENERATION
-------------------

General Integration Accuracy     IntAcc      ... 4.959
Radial Grid Type                 RadialGrid  ... OptM3 with GC (2021)
Angular Grid (max. ang.)         AngularGrid ... 6 (Lebedev-590)
Angular grid pruning method      GridPruning ... 4 (adaptive)
Weight generation scheme         WeightScheme... mBecke (2022)
Basis function cutoff            BFCut       ... 1.0000e-10
Integration weight cutoff        WCut        ... 1.0000e-14
Partially contracted basis set               ... off
Rotationally invariant grid construction     ... off
Angular grids for H and He will be reduced by one unit

Total number of grid points                  ...   457589
Total number of batches                      ...     7166
Average number of points per batch           ...       63
Average number of grid points per atom       ...    12042

--------------------
COSX GRID GENERATION
--------------------

GRIDX 1
-------
General Integration Accuracy     IntAcc      ... 4.020
Radial Grid Type                 RadialGrid  ... OptM3 with GC (2021)
Angular Grid (max. ang.)         AngularGrid ... 2 (Lebedev-110)
Angular grid pruning method      GridPruning ... 4 (adaptive)
Weight generation scheme         WeightScheme... mBecke (2022)
Basis function cutoff            BFCut       ... 1.0000e-10
Integration weight cutoff        WCut        ... 1.0000e-14
Partially contracted basis set               ... on
Rotationally invariant grid construction     ... off
Angular grids for H and He will be reduced by one unit

Total number of grid points                  ...    52162
Total number of batches                      ...      422
Average number of points per batch           ...      123
Average number of grid points per atom       ...     1373
UseSFitting                                  ... on

GRIDX 2
-------
General Integration Accuracy     IntAcc      ... 4.338
Radial Grid Type                 RadialGrid  ... OptM3 with GC (2021)
Angular Grid (max. ang.)         AngularGrid ... 3 (Lebedev-194)
Angular grid pruning method      GridPruning ... 4 (adaptive)
Weight generation scheme         WeightScheme... mBecke (2022)
Basis function cutoff            BFCut       ... 1.0000e-10
Integration weight cutoff        WCut        ... 1.0000e-14
Partially contracted basis set               ... on
Rotationally invariant grid construction     ... off
Angular grids for H and He will be reduced by one unit

Total number of grid points                  ...   114343
Total number of batches                      ...      917
Average number of points per batch           ...      124
Average number of grid points per atom       ...     3009
UseSFitting                                  ... on

GRIDX 3
-------
General Integration Accuracy     IntAcc      ... 4.871
Radial Grid Type                 RadialGrid  ... OptM3 with GC (2021)
Angular Grid (max. ang.)         AngularGrid ... 4 (Lebedev-302)
Angular grid pruning method      GridPruning ... 4 (adaptive)
Weight generation scheme         WeightScheme... mBecke (2022)
Basis function cutoff            BFCut       ... 1.0000e-10
Integration weight cutoff        WCut        ... 1.0000e-14
Partially contracted basis set               ... on
Rotationally invariant grid construction     ... off
Angular grids for H and He will be reduced by one unit

Total number of grid points                  ...   211190
Total number of batches                      ...     1668
Average number of points per batch           ...      126
Average number of grid points per atom       ...     5558
UseSFitting                                  ... on
Initializing property integral containers    ... done (  0.1 sec)

SHARK setup successfully completed in  23.2 seconds

Maximum memory used throughout the entire STARTUP-calculation: 117.8 MB


           ************************************************************
           *        Program running with 104 parallel MPI-processes   *
           *              working on a common directory               *
           ************************************************************
-------------------------------------------------------------------------------
                                 ORCA GUESS
                   Start orbitals & Density for SCF / CASSCF
-------------------------------------------------------------------------------

------------
SCF SETTINGS
------------
Hamiltonian:
 Density Functional     Method          .... DFT(GTOs)
 Exchange Functional    Exchange        .... PBE
   PBE kappa parameter   XKappa         ....  0.804000
   PBE mue parameter    XMuePBE         ....  0.219520
 Correlation Functional Correlation     .... P86
 LDA part of GGA corr.  LDAOpt          .... VWN-5
 Gradients option       PostSCFGGA      .... off
 Hybrid DFT is turned on
   Fraction HF Exchange ScalHFX         ....  0.690000
   Scaling of DF-GGA-X  ScalDFX         ....  0.310000
   Scaling of DF-GGA-C  ScalDFC         ....  0.403800
   Scaling of DF-LDA-C  ScalLDAC        ....  0.403800
   Perturbative correction              ....  1.000000
 RI-approximation to the Coulomb term is turned on
   Number of AuxJ basis functions       .... 1330
   RIJ-COSX (HFX calculated with COS-X)).... on


General Settings:
 Integral files         IntName         .... compas3x_hc_c24h14_0pent_11_tz_ri
 Hartree-Fock type      HFTyp           .... RHF
 Total Charge           Charge          ....    0
 Multiplicity           Mult            ....    1
 Number of Electrons    NEL             ....  158
 Basis Dimension        Dim             ....  828
 Nuclear Repulsion      ENuc            ....   1791.7654275469 Eh

Convergence Acceleration:
 AO-DIIS                CNVDIIS         .... on
   Start iteration      DIISMaxIt       ....    12
   Startup error        DIISStart       ....  0.200000
   # of expansion vecs  DIISMaxEq       ....     5
   Bias factor          DIISBfac        ....   1.050
   Max. coefficient     DIISMaxC        ....  10.000
 MO-DIIS                CNVKDIIS        .... off
 Trust-Rad. Augm. Hess. CNVTRAH         .... auto
   Auto Start mean grad. ratio tolernc. ....  1.125000
   Auto Start start iteration           ....    50
   Auto Start num. interpolation iter.  ....    10
   Max. Number of Micro iterations      ....    24
   Max. Number of Macro iterations      .... Maxiter - #DIIS iter
   Number of Davidson start vectors     ....     2
   Converg. threshold    (grad. norm)   ....   5.000e-05
   Grad. Scal. Fac. for Micro threshold ....   0.100
   Minimum threshold for Micro iter.    ....   1.000e-02
   NR start threshold (gradient norm)   ....   1.000e-04
   Initial trust radius                 ....   0.400
   Minimum AH scaling param. (alpha)    ....   1.000
   Maximum AH scaling param. (alpha)    .... 1000.000
   Quad. conv. algorithm                .... NR
   White noise on init. David. guess    .... on
   Maximum white noise                  ....   0.010
   Pseudo random numbers                .... off
   Inactive MOs                         .... canonical
   Orbital update algorithm             .... Taylor
   Preconditioner                       .... Diag
   Full preconditioner red. dimension   ....   250
 SOSCF                  CNVSOSCF        .... on
   Start iteration      SOSCFMaxIt      ....   150
   Startup grad/error   SOSCFStart      ....  0.003300
   Hessian update       SOSCFHessUp     .... L-BFGS
 Level Shifting         CNVShift        .... on
   Level shift para.    LevelShift      ....    0.2500
   Turn off err/grad.   ShiftErr        ....    0.0010
 Zerner damping         CNVZerner       .... off
 Static damping         CNVDamp         .... on
   Fraction old density DampFac         ....    0.7000
   Max. Damping (<1)    DampMax         ....    0.9800
   Min. Damping (>=0)   DampMin         ....    0.0000
   Turn off err/grad.   DampErr         ....    0.1000

SCF Procedure:
 Maximum # iterations   MaxIter         ....   125
 SCF integral mode      SCFMode         .... Direct
   Integral package                     .... SHARK and LIBINT hybrid scheme
 Reset frequency        DirectResetFreq ....    20
 Integral Threshold     Thresh          ....  1.000e-10 Eh
 Primitive CutOff       TCut            ....  1.000e-11 Eh

Convergence Tolerance:
 Convergence Check Mode ConvCheckMode   .... Total+1el-Energy
 Convergence forced     ConvForced      .... 0
 Energy Change          TolE            ....  1.000e-06 Eh
 1-El. energy change                    ....  1.000e-03 Eh
 Orbital Gradient       TolG            ....  5.000e-05
 Orbital Rotation angle TolX            ....  5.000e-05
 DIIS Error             TolErr          ....  1.000e-06

------------------------------
INITIAL GUESS: MODEL POTENTIAL
------------------------------
Loading Hartree-Fock densities                     ... done
Calculating cut-offs                               ... done
Initializing the effective Hamiltonian             ... done
Setting up the integral package (SHARK)            ... done
Starting the Coulomb interaction                   ... done (   0.2 sec)
Making the grid                                    ... done (   0.2 sec)
Mapping shells                                     ... done
Starting the XC term evaluation                    ... done (   0.1 sec)
  promolecular density results
     # of electrons  =    157.976058033
     EX              =   -127.038874952
     EC              =      0.201990995
     EX+EC           =   -126.836883957
Transforming the Hamiltonian                       ... done (   0.1 sec)
Diagonalizing the Hamiltonian                      ... done (   0.1 sec)
Back transforming the eigenvectors                 ... done (   0.1 sec)
Now organizing SCF variables                       ... done
                      ------------------
                      INITIAL GUESS DONE (   1.0 sec)
                      ------------------
             **** ENERGY FILE WAS UPDATED (compas3x_hc_c24h14_0pent_11_tz_ri.en.tmp) ****
Finished Guess after  15.8 sec
Maximum memory used throughout the entire GUESS-calculation: 65.5 MB


           ************************************************************
           *        Program running with 104 parallel MPI-processes   *
           *              working on a common directory               *
           ************************************************************

-------------------------------------------------------------------------------------------
                                      ORCA LEAN-SCF
                              memory conserving SCF solver
-------------------------------------------------------------------------------------------

----------------------------------------D-I-I-S--------------------------------------------
Iteration    Energy (Eh)           Delta-E    RMSDP     MaxDP     DIISErr   Damp  Time(sec)
-------------------------------------------------------------------------------------------
               ***  Starting incremental Fock matrix formation  ***
    1    -918.9909501648071455     0.00e+00  9.31e-04  2.88e-02  1.46e-01  0.700   3.9
    2    -919.1729711290513478    -1.82e-01  7.92e-04  2.64e-02  9.17e-02  0.700   3.0
                               ***Turning on AO-DIIS***
    3    -919.2810823966151474    -1.08e-01  5.81e-04  2.05e-02  5.25e-02  0.700   2.7
    4    -919.3487023816483088    -6.76e-02  1.42e-03  5.18e-02  3.58e-02  0.000   2.7
    5    -919.4962985265183306    -1.48e-01  1.47e-04  8.57e-03  3.45e-03  0.000   2.7
                              *** Initializing SOSCF ***
---------------------------------------S-O-S-C-F--------------------------------------
Iteration    Energy (Eh)           Delta-E    RMSDP     MaxDP     MaxGrad    Time(sec)
--------------------------------------------------------------------------------------
    6    -919.4967463898128699    -4.48e-04  8.25e-05  3.64e-03  1.42e-03     3.0
               *** Restarting incremental Fock matrix formation ***
    7    -919.4969042319621622    -1.58e-04  1.56e-04  6.03e-03  1.23e-03     3.5
    8    -919.4970090012466244    -1.05e-04  1.15e-04  6.75e-03  8.24e-04     7.2
    9    -919.4970306704290124    -2.17e-05  7.69e-05  2.83e-03  6.40e-04     3.2
   10    -919.4970436045646238    -1.29e-05  3.43e-05  1.77e-03  1.30e-04     3.0
   11    -919.4970437172792117    -1.13e-07  2.62e-05  1.79e-03  8.97e-05     2.8
                 **** Energy Check signals convergence ****

               *****************************************************
               *                     SUCCESS                       *
               *           SCF CONVERGED AFTER  11 CYCLES          *
               *****************************************************

Recomputing exchange energy using gridx3       ... done (    2.910 sec)
Old exchange energy                            :    -89.562185042 Eh
New exchange energy                            :    -89.562150149 Eh
Exchange energy change after final integration :      0.000034894 Eh
Total energy after final integration           :   -919.497008824 Eh
             **** ENERGY FILE WAS UPDATED (compas3x_hc_c24h14_0pent_11_tz_ri.en.tmp) ****

----------------
TOTAL SCF ENERGY
----------------

Total Energy       :       -919.49700882363675 Eh          -25020.78564 eV

Components:
Nuclear Repulsion  :       1791.76542754693082 Eh           48756.41601 eV
Electronic Energy  :      -2711.26247126421003 Eh          -73777.20260 eV
One Electron Energy:      -4804.03207923630089 Eh         -130724.35877 eV
Two Electron Energy:       2092.76960797209085 Eh           56947.15617 eV

Virial components:
Potential Energy   :      -1837.04607175397041 Eh          -49988.56498 eV
Kinetic Energy     :        917.54906293033366 Eh           24967.77934 eV
Virial Ratio       :          2.00212298826515

DFT components:
N(Alpha)           :       79.000018595216 electrons
N(Beta)            :       79.000018595216 electrons
N(Total)           :      158.000037190432 electrons
E(X)               :      -40.064198413212 Eh       
E(C)               :       -2.355087847468 Eh       
E(XC)              :      -42.419286260681 Eh       

---------------
SCF CONVERGENCE
---------------

  Last Energy change         ...    1.1271e-07  Tolerance :   1.0000e-06
  Last MAX-Density change    ...    1.7859e-03  Tolerance :   1.0000e-05
  Last RMS-Density change    ...    2.6193e-05  Tolerance :   1.0000e-06
  Last DIIS Error            ...    1.4207e-03  Tolerance :   1.0000e-06
  Last Orbital Gradient      ...    8.9726e-05  Tolerance :   5.0000e-05
  Last Orbital Rotation      ...    1.7066e-04  Tolerance :   5.0000e-05


----------------
ORBITAL ENERGIES
----------------

  NO   OCC          E(Eh)            E(eV) 
   0   2.0000     -10.836556      -294.8777 
   1   2.0000     -10.835900      -294.8598 
   2   2.0000     -10.834752      -294.8286 
   3   2.0000     -10.834707      -294.8274 
   4   2.0000     -10.830478      -294.7123 
   5   2.0000     -10.830475      -294.7122 
   6   2.0000     -10.830044      -294.7005 
   7   2.0000     -10.830041      -294.7004 
   8   2.0000     -10.828906      -294.6695 
   9   2.0000     -10.828900      -294.6693 
  10   2.0000     -10.822495      -294.4951 
  11   2.0000     -10.822489      -294.4949 
  12   2.0000     -10.822001      -294.4816 
  13   2.0000     -10.821995      -294.4815 
  14   2.0000     -10.821276      -294.4619 
  15   2.0000     -10.821273      -294.4618 
  16   2.0000     -10.821243      -294.4610 
  17   2.0000     -10.821238      -294.4609 
  18   2.0000     -10.820528      -294.4415 
  19   2.0000     -10.820526      -294.4415 
  20   2.0000     -10.820351      -294.4367 
  21   2.0000     -10.820347      -294.4366 
  22   2.0000     -10.819705      -294.4191 
  23   2.0000     -10.819703      -294.4191 
  24   2.0000      -1.094474       -29.7822 
  25   2.0000      -1.077054       -29.3081 
  26   2.0000      -1.029805       -28.0224 
  27   2.0000      -1.021029       -27.7836 
  28   2.0000      -1.012289       -27.5458 
  29   2.0000      -0.975108       -26.5340 
  30   2.0000      -0.947449       -25.7814 
  31   2.0000      -0.921832       -25.0843 
  32   2.0000      -0.916518       -24.9397 
  33   2.0000      -0.914171       -24.8759 
  34   2.0000      -0.899665       -24.4811 
  35   2.0000      -0.848324       -23.0841 
  36   2.0000      -0.807197       -21.9649 
  37   2.0000      -0.782524       -21.2936 
  38   2.0000      -0.770553       -20.9678 
  39   2.0000      -0.770041       -20.9539 
  40   2.0000      -0.753758       -20.5108 
  41   2.0000      -0.727533       -19.7972 
  42   2.0000      -0.702692       -19.1212 
  43   2.0000      -0.650062       -17.6891 
  44   2.0000      -0.646702       -17.5977 
  45   2.0000      -0.638067       -17.3627 
  46   2.0000      -0.635054       -17.2807 
  47   2.0000      -0.619373       -16.8540 
  48   2.0000      -0.612093       -16.6559 
  49   2.0000      -0.609825       -16.5942 
  50   2.0000      -0.572106       -15.5678 
  51   2.0000      -0.561417       -15.2769 
  52   2.0000      -0.546423       -14.8689 
  53   2.0000      -0.545070       -14.8321 
  54   2.0000      -0.531987       -14.4761 
  55   2.0000      -0.527216       -14.3463 
  56   2.0000      -0.527055       -14.3419 
  57   2.0000      -0.516697       -14.0600 
  58   2.0000      -0.506632       -13.7862 
  59   2.0000      -0.501069       -13.6348 
  60   2.0000      -0.500701       -13.6248 
  61   2.0000      -0.495232       -13.4759 
  62   2.0000      -0.480901       -13.0860 
  63   2.0000      -0.476867       -12.9762 
  64   2.0000      -0.473052       -12.8724 
  65   2.0000      -0.442284       -12.0352 
  66   2.0000      -0.438096       -11.9212 
  67   2.0000      -0.433233       -11.7889 
  68   2.0000      -0.428798       -11.6682 
  69   2.0000      -0.417545       -11.3620 
  70   2.0000      -0.415875       -11.3165 
  71   2.0000      -0.408751       -11.1227 
  72   2.0000      -0.371480       -10.1085 
  73   2.0000      -0.341724        -9.2988 
  74   2.0000      -0.307487        -8.3671 
  75   2.0000      -0.303290        -8.2529 
  76   2.0000      -0.303042        -8.2462 
  77   2.0000      -0.282976        -7.7002 
  78   2.0000      -0.204337        -5.5603 
  79   0.0000      -0.034241        -0.9317 
  80   0.0000       0.036591         0.9957 
  81   0.0000       0.054779         1.4906 
  82   0.0000       0.056690         1.5426 
  83   0.0000       0.064035         1.7425 
  84   0.0000       0.101886         2.7725 
  85   0.0000       0.110686         3.0119 
  86   0.0000       0.113132         3.0785 
  87   0.0000       0.117868         3.2074 
  88   0.0000       0.126161         3.4330 
  89   0.0000       0.131272         3.5721 
*Only the first 10 virtual orbitals were printed.
-------
TIMINGS
-------

Total SCF time: 0 days 0 hours 0 min 56 sec 

Total time                  ....      56.322 sec
Sum of individual times     ....      56.043 sec  ( 99.5%)

SCF preparation             ....      14.932 sec  ( 26.5%)
Fock matrix formation       ....      32.517 sec  ( 57.7%)
  Startup                   ....       0.838 sec  (  2.6% of F)
  Split-RI-J                ....       3.006 sec  (  9.2% of F)
  Chain of spheres X        ....      17.358 sec  ( 53.4% of F)
  XC integration            ....       9.280 sec  ( 28.5% of F)
    XC Preparation          ....       0.000 sec  (  0.0% of XC)
    Basis function eval.    ....       0.473 sec  (  5.1% of XC)
    Density eval.           ....       0.537 sec  (  5.8% of XC)
    XC-Functional eval.     ....       0.036 sec  (  0.4% of XC)
    XC-Potential eval.      ....       0.462 sec  (  5.0% of XC)
Diagonalization             ....       0.000 sec  (  0.0%)
Density matrix formation    ....       1.519 sec  (  2.7%)
Total Energy calculation    ....       0.997 sec  (  1.8%)
Population analysis         ....       0.000 sec  (  0.0%)
Orbital Transformation      ....       0.757 sec  (  1.3%)
Orbital Orthonormalization  ....       0.000 sec  (  0.0%)
DIIS solution               ....       3.419 sec  (  6.1%)
SOSCF solution              ....       1.838 sec  (  3.3%)
Finished LeanSCF after  56.7 sec

Maximum memory used throughout the entire LEANSCF-calculation: 133.5 MB


           ************************************************************
           *        Program running with 104 parallel MPI-processes   *
           *              working on a common directory               *
           ************************************************************

------------------------------------------------------------------------------
                                ORCA  MP2 
------------------------------------------------------------------------------


-------------
RI-MP2 ENERGY
-------------
Dimension of the orbital basis            ...  828
Dimension of the AuxC basis               ... 2034
Memory devoted to MP2                     ... 4096 MB   
Data format for matrix containers         ... DOUBLE
Compression type for matrix containers    ... UNCOMPRESSED
Scaling for aa/bb pairs                   ...   5.710e-02
Scaling for ab pairs                      ...   5.979e-01
Overall scaling of the MP2 energy         ...   1.000e+00

-----------------------
SHARK RI TRANSFORMATION
-----------------------

Number of basis functions                ...    828
Number of aux functions                  ...   2034
Number of operators                      ...      1
Generation of IJK                        ... NO
Generation of IAK                        ... YES
Generation of ABK                        ... NO
Orbital Range Operator  0:    0-  78 to   79- 827

Aux basis identifier                     ...   AUXC
Contraction scheme used                  ... SEGMENTED
Do orthogonalization                     ... YES
All operator combinations                ... NO
Transpose (ia|K)                         ... NO
Integral generator used                  ... LIBINT
Starting integral generation + trafo... 
Half trafo (segmented) done. Total time =  0.9 sec. integrals=  0.3 sec trafo=  0.3 sec
Integral generation and half transformation done (  0.9 sec)

Reading or making V^(-1/2)          ... done (  0.1 sec)
Sorting IAK integrals               ... done (  1.6 sec)

SHARK RI integral transformation done. Total time =  2.7 sec.

Opening buffers                              ... done

Starting loop over batches of integrals:

Operator 0  - window                       ... (  0- 78)x( 79-827)
Operator 0  - Memory available             ...  4096 MB
Operator 0  - Memory needed per MO         ...  11.6 MB
Operator 0  - Number of orbitals per batch ... 1
Operator 0  - Number of batches            ... 1

OPERATOR  0   PASS   0:  MOs     0 ...    0 +    1 ...    1 +    2 ...    2 +    3 ...    3
                            +    4 ...    4 +    5 ...    5 +    6 ...    6 +    7 ...    7
                            +    8 ...    8 +    9 ...    9 +   10 ...   10 +   11 ...   11
                            +   12 ...   12 +   13 ...   13 +   14 ...   14 +   15 ...   15
                            +   16 ...   16 +   17 ...   17 +   18 ...   18 +   19 ...   19
                            +   20 ...   20 +   21 ...   21 +   22 ...   22 +   23 ...   23
                            +   24 ...   24 +   25 ...   25 +   26 ...   26 +   27 ...   27
                            +   28 ...   28 +   29 ...   29 +   30 ...   30 +   31 ...   31
                            +   32 ...   32 +   33 ...   33 +   34 ...   34 +   35 ...   35
                            +   36 ...   36 +   37 ...   37 +   38 ...   38 +   39 ...   39
                            +   40 ...   40 +   41 ...   41 +   42 ...   42 +   43 ...   43
                            +   44 ...   44 +   45 ...   45 +   46 ...   46 +   47 ...   47
                            +   48 ...   48 +   49 ...   49 +   50 ...   50 +   51 ...   51
                            +   52 ...   52 +   53 ...   53 +   54 ...   54 +   55 ...   55
                            +   56 ...   56 +   57 ...   57 +   58 ...   58 +   59 ...   59
                            +   60 ...   60 +   61 ...   61 +   62 ...   62 +   63 ...   63
                            +   64 ...   64 +   65 ...   65 +   66 ...   66 +   67 ...   67
                            +   68 ...   68 +   69 ...   69 +   70 ...   70 +   71 ...   71
                            +   72 ...   72 +   73 ...   73 +   74 ...   74 +   75 ...   75
                            +   76 ...   76 +   77 ...   77 +   78 ...   78
  Reading integrals       ... ok
Time spent in pair loops =     4.879 sec

-----------------------------------------------
 RI-MP2 CORRELATION ENERGY:     -2.141017746 Eh
-----------------------------------------------


-------
TIMINGS
-------

Total time                :    8.521 sec
Integral trafo            :    2.750 sec ( 32.3%)
I/O of integrals          :    0.003 sec (  0.0%)
K(i,j) operators          :    0.050 sec (  0.6%)
T(i,j) pair energies      :    0.008 sec (  0.1%)
V**(-1/2)                 :    0.889 sec ( 10.4%)


---------------------------------------
MP2 TOTAL ENERGY:     -921.638026569 Eh
---------------------------------------

Maximum memory used throughout the entire MP2-calculation: 110.3 MB


-------------------------------------------------------------------------------
                          DFT DISPERSION CORRECTION                            
                                                                               
                                DFTD4 V3.4.0                                   
-------------------------------------------------------------------------------
The REV-DSD-PBEP86-2021 functional is recognized
A user input s6-coefficient scaling factor has been recognized
A user input a1-coefficient scaling factor has been recognized
A user input s8-coefficient scaling factor has been recognized
A user input a2-coefficient scaling factor has been recognized
A user input s9-coefficient scaling factor has been recognized
Active option DFTDOPT                   ...         5   

-------------------------   ----------------
Dispersion correction           -0.038110771
-------------------------   ----------------


-------------------------   --------------------
FINAL SINGLE POINT ENERGY      -921.676137340276
-------------------------   --------------------



           ************************************************************
           *        Program running with 104 parallel MPI-processes   *
           *              working on a common directory               *
           ************************************************************

------------------------------------------------------------------------------
                              ORCA PROPERTY CALCULATIONS
------------------------------------------------------------------------------

GBWName                                 ... compas3x_hc_c24h14_0pent_11_tz_ri.gbw
Number of atoms                         ...     38
Number of basis functions               ...    828
Max core memory                         ...   1024 MB

Electric properties:
Dipole moment                           ... YES
Quadrupole moment                       ...  NO
Static polarizability (Dipole/Dipole)   ...  NO
Static polarizability (Dipole/Quad.)    ...  NO
Static polarizability (Quad./Quad.)     ...  NO
Static polarizability (Velocity)        ...  NO

Atomic electric properties:
Dipole moment                           ...  NO
Quadrupole moment                       ...  NO
Static polarizability                   ...  NO

Choice of electric origin               ... Center of mass
Position of electric origin             ...     0.000087     0.000041    -0.000172

General magnetic properties:
Magnetizability                         ...  NO

EPR properties:
g-Tensor (aka g-matrix)                 ...  NO
Zero-Field splitting spin-orbit         ...  NO
Zero-field splitting spin-spin          ...  NO
Hyperfine couplings                     ...  NO (   0 nuclei)
Quadrupole couplings                    ...  NO (   0 nuclei)
Contact density                         ...  NO (   0 nuclei)

NMR properties:
Chemical shifts                         ...  NO (   0 nuclei)
Spin-rotation constants                 ...  NO (   0 nuclei)
Spin-spin couplings                     ...  NO (   0 nuclei,    0 pairs)

Choice of magnetic origin               ... GIAO
Position of magnetic origin             ...     0.000000     0.000000     0.000000

Properties with geometric perturbations:
SCF Hessian                             ...  NO
IR spectrum                             ...  NO
VCD spectrum                            ...  NO
X-ray spectroscopy properties:
SCF XES/XAS/RIXS spectra                ...  NO


-------------
DIPOLE MOMENT
-------------

Method             : SCF
Type of density    : Electron Density
Multiplicity       :   1
Irrep              :   0
Energy             :  -919.4970088236367474 Eh
Relativity type    : 
Basis              : AO
                                X                 Y                 Z
Electronic contribution:     -0.000172821      -0.000353450       0.009361506
Nuclear contribution   :      0.000251015       0.000173887       0.001503816
                        -----------------------------------------
Total Dipole Moment    :      0.000078195      -0.000179562       0.010865322
                        -----------------------------------------
Magnitude (a.u.)       :      0.010867087
Magnitude (Debye)      :      0.027621940



--------------------
Rotational spectrum 
--------------------
 
Rotational constants in cm-1:             0.019218             0.005435             0.004261 
Rotational constants in MHz :           576.129387           162.942170           127.745475 

Dipole components along the rotational axes: 
x,y,z [a.u.] :     0.000191    -0.000033     0.010865 
x,y,z [Debye]:     0.000486    -0.000083     0.027618 

 

Dipole moment calculation done in   0.1 sec 

Maximum memory used throughout the entire PROP-calculation: 69.1 MB

--------------------------------
SUGGESTED CITATIONS FOR THIS RUN
--------------------------------

Below you find a list of papers that are relevant to this ORCA run
We neither can nor want to force you to cite these papers, but we appreciate if you do
You receive ORCA, which is the product of decades of hard work by many enthusiastic individuals, for free
The only thing we kindly ask in return is that you cite our papers,
We deeply appreciate it, if you show your appreciation for ORCA by not just citing the generic ORCA reference.

Please note that relegating all ORCA citations to the supporting information does *not* help us.
SI sections are not indexed - citations you put there will not count into any citation statistics
But we need these citations in order to attract the funding resources that allow us to do what we are doing

Therefore, if you are a happy ORCA user, please consider citing a few of the papers listed below in the main body of your paper

In addition to the list printed below, the program has created the file compas3x_hc_c24h14_0pent_11_tz_ri.bibtex that contains the list in bibtex format
You can import this file easily into all common literature databanks and citation aid programs


List of essential papers. We consider these as the minimum necessary citations

  1. Neese,F.
     Software update: the ORCA program system, version 5.0
     WIRES Comput. Molec. Sci., 2022 12(1)e1606
     doi.org/10.1002/wcms.1606

List of papers to cite with high priority. The work reported in these papers was absolutely
necessary for this run to complete.
Our perspective: the developers of density functionals and basis sets usually get cited in chemistry papers
Good! But without the algorithms to do something with them, the functionals or basis sets would not do anything.
Hence, in our opinion, the algorithm design and method developments papers are equally worthy of getting cited

  1. Neese,F.
     An improvement of the resolution of the identity approximation for the formation of the Coulomb matrix
     J. Comp. Chem., 2003 24(14)1740-1747
     doi.org/10.1002/jcc.10318
  2. Neese,F.; Wennmohs,F.; Hansen,A.; Becker,U.
     Efficient, approximate and parallel Hartree-Fock and hybrid DFT calculations. A 'chain-of-spheres' algorithm for the Hartree-Fock exchange
     Chem. Phys., 2009 356(1-3)98-109
     doi.org/10.1016/j.chemphys.2008.10.036
  3. Kossmann,S.; Neese,F.
     Efficient Structure Optimization with Second-Order Many-Body Perturbation Theory: The RIJCOSX-MP2 Method
     J. Theo. Comp. Chem., 2010 6 2325-2338
     doi.org/10.1021/ct100199k
  4. Helmich-Paris,B.; de Souza,B.; Neese,F.; Izsák,R.
     An improved chain of spheres for exchange algorithm
     J. Chem. Phys., 2021 155 104109
     doi.org/doi: 10.1063/5.0058766.
  5. Neese,F.
     The SHARK Integral Generation and Digestion System
     J. Comp. Chem., 2022  1-16
     doi.org/10.1002/jcc.26942
  6. Caldeweyher,E.; Bannwarth,C.; Grimme,S.
     Extension of the D3 dispersion coefficient model
     J. Chem. Phys., 2017 147 034112
     doi.org/10.1063/1.4993215
  7. Caldeweyher,E.; Ehlert,S.; Hansen,A.; Neugebauer,H.; Spicher,S.; Bannwarth,C.; Grimme,S.
     A generally applicable atomic-charge dependent London dispersion correction
     J. Chem. Phys., 2019 150 154122
     doi.org/10.1063/1.5090222
  8. Caldeweyher,E.; Mewes,J.; Ehlert,S.; Grimme,S.
     Extension and evaluation of the D4 London-dispersion model for periodic systems
     Phys. Chem. Chem. Phys., 2020 22(16)8499-8512
     doi.org/10.1039/D0CP00502A
  9. Wittmann,L.; Gordiy,I.; Friede,M.; Helmich-Paris,B.; Grimme,S.; Hansen,A.; Bursch,M.
     Extension of the D3 and D4 London Dispersion Corrections to the full Actinides Series
     Phys. Chem. Chem. Phys., 2024 26(32)21379-21394
     doi.org/https://doi.org/10.1039/D4CP01514B 

List of suggested additional citations. These are papers that are important in the 'surrounding' of 
of this run, or papers that preceded the highly important papers. If you like your results we are grateful for a citation.

  1. Izsak,R.; Neese,F.
     An overlap fitted chain of spheres exchange method
     J. Chem. Phys., 2011 135 144105
     doi.org/10.1063/1.3646921
  2. Izsak,R.; Hansen,A.; Neese,F.
     The resolution of identity and chain of spheres approximations for the LPNO-CCSD singles Fock term
     Molec. Phys., 2012 110 2413-2417
     doi.org/10.1080/00268976.2012.687466
  3. Neese,F.
     The ORCA program system
     WIRES Comput. Molec. Sci., 2012 2(1)73-78
     doi.org/10.1002/wcms.81
  4. Izsak,R.; Neese,F.; Klopper,W.
     Robust fitting techniques in the chain of spheres approximation to the Fock exchange: The role of the complementary space
     J. Chem. Phys., 2013 139 
     doi.org/10.1063/1.4819264
  5. Neese,F.
     Software update: the ORCA program system, version 4.0
     WIRES Comput. Molec. Sci., 2018 8(1)1-6
     doi.org/10.1002/wcms.1327
  6. Neese,F.; Wennmohs,F.; Becker,U.; Riplinger,C.
     The ORCA quantum chemistry program package
     J. Chem. Phys., 2020 152 Art. No. L224108
     doi.org/10.1063/5.0004608

List of optional additional citations

  1. Neese,F.
     Approximate second-order SCF convergence for spin unrestricted wavefunctions
     Chem. Phys. Lett., 2000 325(1-3)93-98
     doi.org/10.1016/s0009-2614(00)00662-x

Timings for individual modules:

Sum of individual times          ...      153.954 sec (=   2.566 min)
Startup calculation              ...       38.274 sec (=   0.638 min)  24.9 %
SCF iterations                   ...       75.234 sec (=   1.254 min)  48.9 %
Property calculations            ...       15.935 sec (=   0.266 min)  10.4 %
MP2 module                       ...       24.510 sec (=   0.409 min)  15.9 %
                             ****ORCA TERMINATED NORMALLY****
TOTAL RUN TIME: 0 days 0 hours 3 minutes 0 seconds 674 msec
