
                                 *****************
                                 * O   R   C   A *
                                 *****************

                                            #,                                       
                                            ###                                      
                                            ####                                     
                                            #####                                    
                                            ######                                   
                                           ########,                                 
                                     ,,################,,,,,                         
                               ,,#################################,,                 
                          ,,##########################################,,             
                       ,#########################################, ''#####,          
                    ,#############################################,,   '####,        
                  ,##################################################,,,,####,       
                ,###########''''           ''''###############################       
              ,#####''   ,,,,##########,,,,          '''####'''          '####       
            ,##' ,,,,###########################,,,                        '##       
           ' ,,###''''                  '''############,,,                           
         ,,##''                                '''############,,,,        ,,,,,,###''
      ,#''                                            '''#######################'''  
     '                                                          ''''####''''         
             ,#######,   #######,   ,#######,      ##                                
            ,#'     '#,  ##    ##  ,#'     '#,    #''#        ,####,   ,####,        
            ##       ##  ##   ,#'  ##            #'  '#       #'       #'  '#        
            ##       ##  #######   ##           ,######,      #####,   #    #        
            '#,     ,#'  ##    ##  '#,     ,#' ,#      #,     #,   #   #,  ,#        
             '#######'   ##     ##  '#######'  #'      '#     '####' # '####'        



                #########################################################
                #                        -***-                          #
                #          Department of theory and spectroscopy        #
                #                                                       #
                #                      Frank Neese                      #
                #                                                       #
                #     Directorship, Architecture, Infrastructure        #
                #                    SHARK, DRIVERS                     #
                #        Core code/Algorithms in most modules           #
                #                                                       #
                #        Max Planck Institute fuer Kohlenforschung      #
                #                Kaiser Wilhelm Platz 1                 #
                #                 D-45470 Muelheim/Ruhr                 #
                #                      Germany                          #
                #                                                       #
                #                  All rights reserved                  #
                #                        -***-                          #
                #########################################################


                         Program Version 6.0.1  -  RELEASE   -


 With contributions from (in alphabetic order):
[Max-Planck-Institut fuer Kohlenforschung]                               
  Daniel Aravena         : Magnetic Suceptibility                        
  Michael Atanasov       : Ab Initio Ligand Field Theory (pilot matlab implementation)
  Alexander A. Auer      : GIAO ZORA, VPT2 properties, NMR spectrum      
  Ute Becker             : All parallelization in ORCA, NUMFREQ, NUMCALC 
  Giovanni Bistoni       : ED, misc. LED, open-shell LED, HFLD           
  Martin Brehm           : Molecular dynamics                            
  Dmytro Bykov           : pre 5.0 version of the SCF Hessian            
  Marcos Casanova-Páez   : Triplet and SCS-CIS(D). UHF-(DLPNO)-IP/EA/STEOM-CCSD. UHF-CVS-IP/STEOM-CCSD   
  Vijay G. Chilkuri      : MRCI spin determinant printing, contributions to CSF-ICE 
  Pauline Colinet        : FMM embedding                                 
  Dipayan Datta          : RHF DLPNO-CCSD density                        
  Achintya Kumar Dutta   : EOM-CC, STEOM-CC                              
  Nicolas Foglia         : Exact transition moments, OPA infrastructure, MCD improvements    
  Dmitry Ganyushin       : Spin-Orbit,Spin-Spin,Magnetic field MRCI      
  Miquel Garcia-Rates    : C-PCM and meta-GGA Hessian, CCSD/C-PCM, Gaussian charge scheme 
  Tiago L. C. Gouveia    : GS-ROHF, GS-ROCIS                             
  Yang Guo               : DLPNO-NEVPT2, F12-NEVPT2, CIM, IAO-localization        
  Andreas Hansen         : Spin unrestricted coupled pair/coupled cluster methods 
  Ingolf Harden          : AUTO-CI MPn and infrastructure                
  Benjamin Helmich-Paris : MC-RPA, TRAH-(SCF,CASSCF), AVAS, COSX integrals, SCF dyn. polar. 
  Lee Huntington         : MR-EOM, pCC                                   
  Robert Izsak           : Overlap fitted RIJCOSX, COSX-SCS-MP3, EOM     
  Riya Kayal             : Wick's Theorem for AUTO-CI, AUTO-CI UHF-CCSDT 
  Emily Kempfer          : AUTO-CI, RHF CISDT and CCSDT                  
  Christian Kollmar      : KDIIS, OOCD, Brueckner-CCSD(T), CCSD density, CASPT2, CASPT2-K, improved NEVPT2 
  Axel Koslowski         : Symmetry handling                             
  Simone Kossmann        : meta-GGA functionals, TD-DFT gradient, OOMP2, (MP2 Hessian; deprecated post 5.0) 
  Lucas Lang             : DCDCAS                                        
  Marvin Lechner         : AUTO-CI (C++ implementation), FIC-MRCC        
  Spencer Leger          : CASSCF response                               
  Dagmar Lenk            : GEPOL surface, SMD, ORCA-2-JSON               
  Dimitrios Liakos       : Extrapolation schemes; Compound Job, initial MDCI parallelization 
  Dimitrios Manganas     : Further ROCIS development; embedding schemes. LFT, Crystal Embedding 
  Dimitrios Pantazis     : SARC Basis sets                               
  Anastasios Papadopoulos: AUTO-CI, single reference methods and gradients 
  Taras Petrenko         : pre 6.0 DFT Hessian and TD-DFT gradient, (ASA, deprecated), ECA, 1-Electron XAS/XES, NRVS 
  Peter Pinski           : DLPNO-MP2, DLPNO-MP2 Gradient                 
  Christoph Reimann      : Effective Core Potentials                     
  Marius Retegan         : Local ZFS, SOC                                
  Christoph Riplinger    : Optimizer, TS searches, QM/MM, DLPNO-CCSD(T), (RO)-DLPNO pert. Triples 
  Michael Roemelt        : Original ROCIS implementation                 
  Masaaki Saitow         : Open-shell DLPNO-CCSD energy and density      
  Barbara Sandhoefer     : DKH picture change effects                    
  Kantharuban Sivalingam : CASSCF convergence/infrastructure, NEVPT2 and variants, FIC-MRCI 
  Bernardo de Souza      : ESD, SOC TD-DFT                               
  Georgi L. Stoychev     : AutoAux, RI-MP2 NMR, DLPNO-MP2 response, X2C  
  Van Anh Tran           : RI-MP2 g-tensors                              
  Willem Van den Heuvel  : Paramagnetic NMR                              
  Zikuan Wang            : NOTCH, Electric field optimization            
  Frank Wennmohs         : Technical directorship and infrastructure     
  Hang Xu                : AUTO-CI-Response properties                   
                                                                         
[FACCTs GmbH]                                                            
  Markus Bursch, Miquel Garcia-Rates, Christoph Riplinger, Bernardo de Souza, Georgi L. Stoychev 
                                                                 
  APM, Basis sets (HGBS, AHGBS, def-TZVP (Ac-Lr), def2-XVPD (La-Lu)), CI-OPT, improved COSX, DLPNO-Multilevel,           
  DOCKER, DRACO, updates on ESD, GOAT, IRC, LR-CPCM, MBIS, meta-GGA TD-DFT gradient, ML-optimized integration grids, 
  MM, NACMEs, nearIR, NEB, NEB-TS, NL-DFT gradient (VV10), 2- and 3-layer-ONIOM, interface openCOSMO-RS, QMMM,   
  Crystal-QMMM, SF, symmetry and pop. for TD-DFT, r2SCAN hybrids, SOLVATOR                                   
                                                                         
[Other institutions]                                                     
  V. Asgeirsson          : NEB                                           
  Christoph Bannwarth    : sTDA-DFT, sTD-DFT, PBEh-3c, B97-3c, D3        
  Sebastian Ehlert       : rSCAN, r2SCAN, r2SCAN-3c, D4, dhf basis sets  
  Marvin Friede          : D4 for Fr, Ra, Ac-Lr                          
  Lars Goerigk           : TD-DFT with DH, B97 family of functionals     
  Stefan Grimme          : VdW corrections, initial TS optimization, DFT functionals, gCP, sTDA/sTD-DF 
  Waldemar Hujo          : DFT-NL                                        
  H. Jonsson             : NEB                                           
  Holger Kruse           : gCP                                           
  Marcel Mueller         : wB97X-3c, vDZP basis set                      
  Hagen Neugebauer       : wr2SCAN                                       
  Tobias Risthaus        : range-separated hybrid DFT                    
  Lukas Wittmann         : regularized MP2, r2SCAN double-hybrids, wr2SCAN        
                                                                         
We gratefully acknowledge several colleagues who have allowed us to      
interface, adapt or use parts of their codes:                            
  Ed Valeev, F. Pavosevic, A. Kumar             : LibInt (2-el integral package), F12 methods 
  Garnet Chan, S. Sharma, J. Yang, R. Olivares  : DMRG                   
  Ulf Ekstrom                                   : XCFun DFT Library      
  Mihaly Kallay                                 : mrcc  (arbitrary order and MRCC methods)
  Frank Weinhold                                : gennbo (NPA and NBO analysis)           
  Simon Mueller                                 : openCOSMO-RS                            
  Christopher J. Cramer and Donald G. Truhlar   : smd solvation model                     
  S Lehtola, MJT Oliveira, MAL Marques          : LibXC Library                           
  Liviu Ungur et al                             : ANISO software                          


 Your calculation uses the libint2 library for the computation of 2-el integrals
 For citations please refer to: http://libint.valeyev.net

 Your ORCA version has been built with support for libXC version: 6.2.2
 For citations please refer to: https://libxc.gitlab.io

 This ORCA versions uses:
   CBLAS   interface :  Fast vector & matrix operations
   LAPACKE interface :  Fast linear algebra routines
   SCALAPACK package :  Parallel linear algebra routines
   Shared memory     :  Shared parallel matrices
   BLAS/LAPACK       :  OpenBLAS 0.3.27  USE64BITINT DYNAMIC_ARCH NO_AFFINITY SapphireRapids SINGLE_THREADED
        Core in use  :  SapphireRapids
   Copyright (c) 2011-2014, The OpenBLAS Project


Warning! Weird basis set assignment to AuxJK basis!


***************************************
The coordinates will be read from file: /scratch/kx58/rs2200/dhdft/inputs/compas3x-xyzs/hc_c20h12_0pent_1.xyz
***************************************


Your calculation utilizes the atom-pairwise dispersion correction
based on EEQ partial charges (D4)


================================================================================

----- Orbital basis set information -----
Your calculation utilizes the basis: def2-QZVPP
   F. Weigend and R. Ahlrichs, Phys. Chem. Chem. Phys. 7, 3297 (2005).

----- AuxC basis set information -----
Your calculation utilizes the auxiliary basis: def2-QZVPP/C
  H-La, Hf-Rn : A. Hellweg, C. Hattig, S. Hofener and W. Klopper, Theor. Chem. Acc. 117, 587 (2007).
        Ce-Lu : J. Chmela and M. E. Harding, Mol. Phys. (2018).

----- AuxJK basis set information -----
Your calculation utilizes the auxiliary basis: def2-QZVPP/C
  H-La, Hf-Rn : A. Hellweg, C. Hattig, S. Hofener and W. Klopper, Theor. Chem. Acc. 117, 587 (2007).
        Ce-Lu : J. Chmela and M. E. Harding, Mol. Phys. (2018).

================================================================================
                                        WARNINGS
                       Please study these warnings very carefully!
================================================================================


WARNING: No MP2 level density has been requested!
         To calculate MP2 level properties use
         %mp2 Density relaxed end
         or
         %mp2 Density unrelaxed end
         Otherwise for double-hybrid DFT only the energy is correct!

================================================================================
                                       INPUT FILE
================================================================================
NAME = compas3x_hc_c20h12_0pent_1_qz_riri.inp
|  1> ! RKS revDSD-PBEP86-D4/2021 defgrid3  RIJK NOPOP NoFrozencore NoUseSym
|  2> 
|  3> %basis
|  4> Basis "def2-QZVPP"
|  5> AuxJK "def2-QZVPP/C"
|  6> AuxC "def2-QZVPP/C"
|  7> end
|  8> 
|  9> %method
| 10> ScalHFX 0.69
| 11> ScalDFX 0.31
| 12> ScalDFC 0.4038
| 13> ScalLDAC 0.4038
| 14> 
| 15> D4S6 0.4612
| 16> D4S8 0.0
| 17> D4A1 0.44
| 18> D4A2 3.60
| 19> end
| 20> 
| 21> %mp2
| 22> PS 0.5979
| 23> PT 0.0571
| 24> 
| 25> end
| 26> 
| 27> %pal
| 28> nprocs 104
| 29> end
| 30> 
| 31> *XYZFILE 0 1 /scratch/kx58/rs2200/dhdft/inputs/compas3x-xyzs/hc_c20h12_0pent_1.xyz
| 32> 
| 33>                          ****END OF INPUT****
================================================================================

                       ****************************
                       * Single Point Calculation *
                       ****************************

---------------------------------
CARTESIAN COORDINATES (ANGSTROEM)
---------------------------------
  C      1.469668   -0.018064    0.005054
  C      0.490672   -1.041319    0.001149
  C     -0.896893   -0.721514   -0.000437
  C     -1.329248    0.627027    0.002040
  C     -0.335810    1.687432   -0.001244
  C      1.040604    1.370196   -0.000069
  C      2.811965   -0.389437    0.013070
  C      3.198333   -1.720322    0.014046
  C      2.252974   -2.720138    0.006813
  C      0.893116   -2.400242    0.000954
  C     -0.096402   -3.425040   -0.004274
  C     -1.412397   -3.121731   -0.005884
  C     -1.853542   -1.767196   -0.002342
  C     -3.216245   -1.459604    0.000192
  C     -3.628626   -0.146859    0.005829
  C     -2.698701    0.880649    0.006661
  C     -0.710117    3.037944   -0.007956
  C      0.220805    4.049378   -0.013189
  C      1.574013    3.737488   -0.012405
  C      1.968293    2.420620   -0.006141
  H      3.588242    0.358313    0.019274
  H      4.249960   -1.968200    0.020294
  H      2.550611   -3.758856    0.006604
  H      0.237476   -4.453060   -0.006256
  H     -2.162558   -3.899904   -0.009227
  H     -3.938507   -2.263257   -0.001324
  H     -4.682673    0.090574    0.009459
  H     -3.069389    1.892747    0.011496
  H     -1.753422    3.308699   -0.010212
  H     -0.099770    5.080777   -0.018646
  H      2.313707    4.524513   -0.017309
  H      3.024859    2.207386   -0.007021

----------------------------
CARTESIAN COORDINATES (A.U.)
----------------------------
  NO LB      ZA    FRAG     MASS         X           Y           Z
   0 C     6.0000    0    12.011    2.777270   -0.034136    0.009550
   1 C     6.0000    0    12.011    0.927237   -1.967807    0.002172
   2 C     6.0000    0    12.011   -1.694882   -1.363464   -0.000827
   3 C     6.0000    0    12.011   -2.511916    1.184908    0.003855
   4 C     6.0000    0    12.011   -0.634589    3.188784   -0.002351
   5 C     6.0000    0    12.011    1.966456    2.589295   -0.000130
   6 C     6.0000    0    12.011    5.313845   -0.735930    0.024698
   7 C     6.0000    0    12.011    6.043974   -3.250937    0.026544
   8 C     6.0000    0    12.011    4.257503   -5.140317    0.012874
   9 C     6.0000    0    12.011    1.687745   -4.535800    0.001804
  10 C     6.0000    0    12.011   -0.182173   -6.472388   -0.008077
  11 C     6.0000    0    12.011   -2.669044   -5.899217   -0.011119
  12 C     6.0000    0    12.011   -3.502687   -3.339517   -0.004426
  13 C     6.0000    0    12.011   -6.077823   -2.758251    0.000364
  14 C     6.0000    0    12.011   -6.857110   -0.277523    0.011016
  15 C     6.0000    0    12.011   -5.099805    1.664185    0.012587
  16 C     6.0000    0    12.011   -1.341926    5.740883   -0.015034
  17 C     6.0000    0    12.011    0.417260    7.652216   -0.024924
  18 C     6.0000    0    12.011    2.974453    7.062830   -0.023442
  19 C     6.0000    0    12.011    3.719536    4.574308   -0.011605
  20 H     1.0000    0     1.008    6.780795    0.677113    0.036423
  21 H     1.0000    0     1.008    8.031261   -3.719359    0.038349
  22 H     1.0000    0     1.008    4.819957   -7.103209    0.012479
  23 H     1.0000    0     1.008    0.448765   -8.415065   -0.011822
  24 H     1.0000    0     1.008   -4.086642   -7.369750   -0.017437
  25 H     1.0000    0     1.008   -7.442699   -4.276936   -0.002502
  26 H     1.0000    0     1.008   -8.848970    0.171161    0.017875
  27 H     1.0000    0     1.008   -5.800304    3.576773    0.021725
  28 H     1.0000    0     1.008   -3.313488    6.252535   -0.019297
  29 H     1.0000    0     1.008   -0.188537    9.601277   -0.035235
  30 H     1.0000    0     1.008    4.372273    8.550091   -0.032709
  31 H     1.0000    0     1.008    5.716155    4.171355   -0.013268

--------------------------------
INTERNAL COORDINATES (ANGSTROEM)
--------------------------------
 C      0   0   0     0.000000000000     0.00000000     0.00000000
 C      1   0   0     1.416155867402     0.00000000     0.00000000
 C      2   1   0     1.423943275080   120.75492680     0.00000000
 C      3   2   1     1.416156552832   120.75500374     0.00000000
 C      4   3   2     1.453062415167   119.09073359     0.33788811
 C      5   4   3     1.412499520078   120.15339104   359.68291214
 C      1   2   3     1.392747265487   118.26893893   179.69081495
 C      7   1   2     1.385833378602   121.65333600     0.15387298
 C      8   7   1     1.376005128537   120.41442918     0.00000000
 C      9   8   7     1.396989746433   120.15934094   359.87921911
 C     10   9   8     1.424564912553   120.75936024   180.10703903
 C     11  10   9     1.350497247145   121.01781717   179.79881572
 C      3   2   1     1.417262589009   119.47527423   180.09344494
 C     13   3   2     1.396989442451   119.73403980   179.80647496
 C     14  13   3     1.376004430596   120.15932749   359.93699292
 C     15  14  13     1.385833703095   120.41443411     0.11408892
 C      5   4   3     1.401439989956   121.37654912   179.57082760
 C     17   5   4     1.374642081198   121.88299026   180.10186625
 C     18  17   5     1.388685453691   119.64701482     0.02610813
 C     19  18  17     1.374641928091   119.64692421     0.00000000
 H      7   1   2     1.077856431221   120.60824142   180.18611497
 H      8   7   1     1.080463737127   119.45127102   179.99514132
 H      9   8   7     1.080519540276   120.61394294   179.94173820
 H     11  10   9     1.080881339003   118.01094256   359.83842909
 H     12  11  10     1.080881353927   120.97120979   180.03860296
 H     14  13   3     1.080519468470   119.22671679   179.99775364
 H     15  14  13     1.080463941456   120.13434958   180.10246391
 H     16  15  14     1.077856664482   117.73820300   180.02034066
 H     17   5   4     1.077868442271   120.03965524     0.03582963
 H     18  17   5     1.080083453002   120.10818535   179.97935825
 H     19  18  17     1.080083609708   120.24483278   179.94941364
 H     20  19  18     1.077868437928   118.07757529   179.91906806

---------------------------
INTERNAL COORDINATES (A.U.)
---------------------------
 C      0   0   0     0.000000000000     0.00000000     0.00000000
 C      1   0   0     2.676146752335     0.00000000     0.00000000
 C      2   1   0     2.690862820140   120.75492680     0.00000000
 C      3   2   1     2.676148047611   120.75500374     0.00000000
 C      4   3   2     2.745890020160   119.09073359     0.33788811
 C      5   4   3     2.669237257242   120.15339104   359.68291214
 C      1   2   3     2.631910905538   118.26893893   179.69081495
 C      7   1   2     2.618845552805   121.65333600     0.15387298
 C      8   7   1     2.600272851806   120.41442918     0.00000000
 C      9   8   7     2.639928032655   120.15934094   359.87921911
 C     10   9   8     2.692037544719   120.75936024   180.10703903
 C     11  10   9     2.552069941718   121.01781717   179.79881572
 C      3   2   1     2.678238153078   119.47527423   180.09344494
 C     13   3   2     2.639927458211   119.73403980   179.80647496
 C     14  13   3     2.600271532889   120.15932749   359.93699292
 C     15  14  13     2.618846166007   120.41443411     0.11408892
 C      5   4   3     2.648337774143   121.37654912   179.57082760
 C     17   5   4     2.597697065628   121.88299026   180.10186625
 C     18  17   5     2.624235193636   119.64701482     0.02610813
 C     19  18  17     2.597696776297   119.64692421     0.00000000
 H      7   1   2     2.036853466693   120.60824142   180.18611497
 H      8   7   1     2.041780560804   119.45127102   179.99514132
 H      9   8   7     2.041886013471   120.61394294   179.94173820
 H     11  10   9     2.042569713982   118.01094256   359.83842909
 H     12  11  10     2.042569742184   120.97120979   180.03860296
 H     14  13   3     2.041885877778   119.22671679   179.99775364
 H     15  14  13     2.041780946928   120.13434958   180.10246391
 H     16  15  14     2.036853907492   117.73820300   180.02034066
 H     17   5   4     2.036876164288   120.03965524     0.03582963
 H     18  17   5     2.041061927955   120.10818535   179.97935825
 H     19  18  17     2.041062224085   120.24483278   179.94941364
 H     20  19  18     2.036876156081   118.07757529   179.91906806

---------------------
BASIS SET INFORMATION
---------------------
There are 2 groups of distinct atoms

 Group   1 Type C   : 15s8p3d2f1g contracted to 7s4p3d2f1g pattern {8211111/5111/111/11/1}
 Group   2 Type H   : 7s3p2d1f contracted to 4s3p2d1f pattern {4111/111/11/1}

Atom   0C    basis set group =>   1
Atom   1C    basis set group =>   1
Atom   2C    basis set group =>   1
Atom   3C    basis set group =>   1
Atom   4C    basis set group =>   1
Atom   5C    basis set group =>   1
Atom   6C    basis set group =>   1
Atom   7C    basis set group =>   1
Atom   8C    basis set group =>   1
Atom   9C    basis set group =>   1
Atom  10C    basis set group =>   1
Atom  11C    basis set group =>   1
Atom  12C    basis set group =>   1
Atom  13C    basis set group =>   1
Atom  14C    basis set group =>   1
Atom  15C    basis set group =>   1
Atom  16C    basis set group =>   1
Atom  17C    basis set group =>   1
Atom  18C    basis set group =>   1
Atom  19C    basis set group =>   1
Atom  20H    basis set group =>   2
Atom  21H    basis set group =>   2
Atom  22H    basis set group =>   2
Atom  23H    basis set group =>   2
Atom  24H    basis set group =>   2
Atom  25H    basis set group =>   2
Atom  26H    basis set group =>   2
Atom  27H    basis set group =>   2
Atom  28H    basis set group =>   2
Atom  29H    basis set group =>   2
Atom  30H    basis set group =>   2
Atom  31H    basis set group =>   2
---------------------------------
AUXILIARY/C BASIS SET INFORMATION
---------------------------------
There are 2 groups of distinct atoms

 Group   1 Type C   : 9s8p7d5f3g1h contracted to 9s8p7d5f3g1h pattern {111111111/11111111/1111111/11111/111/1}
 Group   2 Type H   : 6s4p3d2f1g contracted to 6s4p3d2f1g pattern {111111/1111/111/11/1}

Atom   0C    basis set group =>   1
Atom   1C    basis set group =>   1
Atom   2C    basis set group =>   1
Atom   3C    basis set group =>   1
Atom   4C    basis set group =>   1
Atom   5C    basis set group =>   1
Atom   6C    basis set group =>   1
Atom   7C    basis set group =>   1
Atom   8C    basis set group =>   1
Atom   9C    basis set group =>   1
Atom  10C    basis set group =>   1
Atom  11C    basis set group =>   1
Atom  12C    basis set group =>   1
Atom  13C    basis set group =>   1
Atom  14C    basis set group =>   1
Atom  15C    basis set group =>   1
Atom  16C    basis set group =>   1
Atom  17C    basis set group =>   1
Atom  18C    basis set group =>   1
Atom  19C    basis set group =>   1
Atom  20H    basis set group =>   2
Atom  21H    basis set group =>   2
Atom  22H    basis set group =>   2
Atom  23H    basis set group =>   2
Atom  24H    basis set group =>   2
Atom  25H    basis set group =>   2
Atom  26H    basis set group =>   2
Atom  27H    basis set group =>   2
Atom  28H    basis set group =>   2
Atom  29H    basis set group =>   2
Atom  30H    basis set group =>   2
Atom  31H    basis set group =>   2
----------------------------------
AUXILIARY/JK BASIS SET INFORMATION
----------------------------------
There are 2 groups of distinct atoms

 Group   1 Type C   : 9s8p7d5f3g1h contracted to 9s8p7d5f3g1h pattern {111111111/11111111/1111111/11111/111/1}
 Group   2 Type H   : 6s4p3d2f1g contracted to 6s4p3d2f1g pattern {111111/1111/111/11/1}

Atom   0C    basis set group =>   1
Atom   1C    basis set group =>   1
Atom   2C    basis set group =>   1
Atom   3C    basis set group =>   1
Atom   4C    basis set group =>   1
Atom   5C    basis set group =>   1
Atom   6C    basis set group =>   1
Atom   7C    basis set group =>   1
Atom   8C    basis set group =>   1
Atom   9C    basis set group =>   1
Atom  10C    basis set group =>   1
Atom  11C    basis set group =>   1
Atom  12C    basis set group =>   1
Atom  13C    basis set group =>   1
Atom  14C    basis set group =>   1
Atom  15C    basis set group =>   1
Atom  16C    basis set group =>   1
Atom  17C    basis set group =>   1
Atom  18C    basis set group =>   1
Atom  19C    basis set group =>   1
Atom  20H    basis set group =>   2
Atom  21H    basis set group =>   2
Atom  22H    basis set group =>   2
Atom  23H    basis set group =>   2
Atom  24H    basis set group =>   2
Atom  25H    basis set group =>   2
Atom  26H    basis set group =>   2
Atom  27H    basis set group =>   2
Atom  28H    basis set group =>   2
Atom  29H    basis set group =>   2
Atom  30H    basis set group =>   2
Atom  31H    basis set group =>   2


           ************************************************************
           *        Program running with 104 parallel MPI-processes   *
           *              working on a common directory               *
           ************************************************************
------------------------------------------------------------------------------
                             ORCA STARTUP CALCULATIONS
                           -- RI-GTO INTEGRALS CHOSEN --
------------------------------------------------------------------------------
------------------------------------------------------------------------------
                   ___                                                        
                  /   \      - P O W E R E D   B Y -                         
                 /     \                                                     
                 |  |  |   _    _      __       _____    __    __             
                 |  |  |  | |  | |    /  \     |  _  \  |  |  /  |          
                  \  \/   | |  | |   /    \    | | | |  |  | /  /          
                 / \  \   | |__| |  /  /\  \   | |_| |  |  |/  /          
                |  |  |   |  __  | /  /__\  \  |    /   |      \           
                |  |  |   | |  | | |   __   |  |    \   |  |\   \          
                \     /   | |  | | |  |  |  |  | |\  \  |  | \   \       
                 \___/    |_|  |_| |__|  |__|  |_| \__\ |__|  \__/        
                                                                              
                      - O R C A' S   B I G   F R I E N D -                    
                                      &                                       
                       - I N T E G R A L  F E E D E R -                       
                                                                              
 v1 FN, 2020, v2 2021, v3 2022-2024                                           
------------------------------------------------------------------------------


----------------------
SHARK INTEGRAL PACKAGE
----------------------

Number of atoms                             ...     32
Number of basis functions                   ...   1500
Number of shells                            ...    460
Maximum angular momentum                    ...      4
Integral batch strategy                     ... SHARK/LIBINT Hybrid
RI-J (if used) integral strategy            ... SPLIT-RIJ (Revised 2003 algorithm where possible)
Printlevel                                  ...      1
Contraction scheme used                     ... SEGMENTED contraction
Prescreening option                         ... SCHWARTZ
   Thresh                                   ... 1.000e-10
   Tcut                                     ... 1.000e-11
   Tpresel                                  ... 1.000e-11 
Coulomb Range Separation                    ... NOT USED
Exchange Range Separation                   ... NOT USED
Multipole approximations                    ... NOT USED
Finite Nucleus Model                        ... NOT USED
CABS basis                                  ... NOT available
Auxiliary Coulomb fitting basis             ... NOT available
Auxiliary J/K fitting basis                 ... AVAILABLE
   # of basis functions in Aux-JK           ...   3492
   # of shells in Aux-JK                    ...    852
   Maximum angular momentum in Aux-JK       ...      5
Auxiliary Correlation fitting basis         ... AVAILABLE
   # of basis functions in Aux-C            ...   3492
   # of shells in Aux-C                     ...    852
   Maximum angular momentum in Aux-C        ...      5
Auxiliary 'external' fitting basis          ... NOT available

Checking pre-screening integrals            ... done (  0.0 sec) Dimension = 460
Check shell pair data                       ... done (  0.0 sec)
Shell pair information
Shell pair cut-off parameter TPreSel        ...   1.0e-11
Total number of shell pairs                 ...    106030
Shell pairs after pre-screening             ...     70416
Total number of primitive shell pairs       ...    272068
Primitive shell pairs kept                  ...    126843
          la=0 lb=0:  10756 shell pairs
          la=1 lb=0:  15556 shell pairs
          la=1 lb=1:   5337 shell pairs
          la=2 lb=0:   9794 shell pairs
          la=2 lb=1:   7071 shell pairs
          la=2 lb=2:   2362 shell pairs
          la=3 lb=0:   5887 shell pairs
          la=3 lb=1:   4246 shell pairs
          la=3 lb=2:   2687 shell pairs
          la=3 lb=3:    843 shell pairs
          la=4 lb=0:   2316 shell pairs
          la=4 lb=1:   1688 shell pairs
          la=4 lb=2:   1084 shell pairs
          la=4 lb=3:    646 shell pairs
          la=4 lb=4:    143 shell pairs

Calculating one electron integrals          ... done (  1.1 sec)
Calculating RI/JK V-Matrix + Cholesky decomp... done (  1.0 sec)
Calculating RI/C V-Matrix + Cholesky decomp.... done (  0.8 sec)
Calculating Nuclear repulsion               ... done (  0.0 sec) ENN=   1378.941077949162 Eh

Diagonalization of the overlap matrix:
Smallest eigenvalue                        ... 6.742e-08
Time for diagonalization                   ...    0.434 sec
Threshold for overlap eigenvalues          ... 1.000e-07
Number of eigenvalues below threshold      ... 1
Smallest eigenvalue above threshold        ... 2.265e-06

IMPORTANT:
Smallest eigenvalue of S below the DiffSThresh (1.000e-06) while
Thresh>1e-12 and/or TCut>1e-13! In order to avoid SCF convergence issues,
Thresh will be set to at least 1e-12 and TCut to at least 1e-13.
This can be turned off by adding %SCF DiffSThresh -1 END to the input.

Time for construction of square roots      ...    0.271 sec
Total time needed                          ...    0.730 sec

-------------------
DFT GRID GENERATION
-------------------

General Integration Accuracy     IntAcc      ... 4.959
Radial Grid Type                 RadialGrid  ... OptM3 with GC (2021)
Angular Grid (max. ang.)         AngularGrid ... 6 (Lebedev-590)
Angular grid pruning method      GridPruning ... 4 (adaptive)
Weight generation scheme         WeightScheme... mBecke (2022)
Basis function cutoff            BFCut       ... 1.0000e-10
Integration weight cutoff        WCut        ... 1.0000e-14
Partially contracted basis set               ... off
Rotationally invariant grid construction     ... off
Angular grids for H and He will be reduced by one unit
Diffuse basis detected: some atoms will have their outermost
                        angular grid increased by 1.

Total number of grid points                  ...   393361
Total number of batches                      ...     6164
Average number of points per batch           ...       63
Average number of grid points per atom       ...    12293
Initializing property integral containers    ... done (  0.0 sec)

SHARK setup successfully completed in   9.4 seconds

Maximum memory used throughout the entire STARTUP-calculation: 157.9 MB


           ************************************************************
           *        Program running with 104 parallel MPI-processes   *
           *              working on a common directory               *
           ************************************************************
-------------------------------------------------------------------------------
                                 ORCA GUESS
                   Start orbitals & Density for SCF / CASSCF
-------------------------------------------------------------------------------

------------
SCF SETTINGS
------------
Hamiltonian:
 Density Functional     Method          .... DFT(GTOs)
 Exchange Functional    Exchange        .... PBE
   PBE kappa parameter   XKappa         ....  0.804000
   PBE mue parameter    XMuePBE         ....  0.219520
 Correlation Functional Correlation     .... P86
 LDA part of GGA corr.  LDAOpt          .... VWN-5
 Gradients option       PostSCFGGA      .... off
 Hybrid DFT is turned on
   Fraction HF Exchange ScalHFX         ....  0.690000
   Scaling of DF-GGA-X  ScalDFX         ....  0.310000
   Scaling of DF-GGA-C  ScalDFC         ....  0.403800
   Scaling of DF-LDA-C  ScalLDAC        ....  0.403800
   Perturbative correction              ....  1.000000
 RI-approximation to the Coulomb term is turned on
   Number of AuxJK basis functions      .... 3492
   RI-JK (J+K treated both via RI)      .... on


General Settings:
 Integral files         IntName         .... compas3x_hc_c20h12_0pent_1_qz_riri
 Hartree-Fock type      HFTyp           .... RHF
 Total Charge           Charge          ....    0
 Multiplicity           Mult            ....    1
 Number of Electrons    NEL             ....  132
 Basis Dimension        Dim             .... 1500
 Nuclear Repulsion      ENuc            ....   1378.9410779492 Eh

Convergence Acceleration:
 AO-DIIS                CNVDIIS         .... on
   Start iteration      DIISMaxIt       ....    12
   Startup error        DIISStart       ....  0.200000
   # of expansion vecs  DIISMaxEq       ....     5
   Bias factor          DIISBfac        ....   1.050
   Max. coefficient     DIISMaxC        ....  10.000
 MO-DIIS                CNVKDIIS        .... off
 Trust-Rad. Augm. Hess. CNVTRAH         .... auto
   Auto Start mean grad. ratio tolernc. ....  1.125000
   Auto Start start iteration           ....    50
   Auto Start num. interpolation iter.  ....    10
   Max. Number of Micro iterations      ....    24
   Max. Number of Macro iterations      .... Maxiter - #DIIS iter
   Number of Davidson start vectors     ....     2
   Converg. threshold    (grad. norm)   ....   5.000e-05
   Grad. Scal. Fac. for Micro threshold ....   0.100
   Minimum threshold for Micro iter.    ....   1.000e-02
   NR start threshold (gradient norm)   ....   1.000e-04
   Initial trust radius                 ....   0.400
   Minimum AH scaling param. (alpha)    ....   1.000
   Maximum AH scaling param. (alpha)    .... 1000.000
   Quad. conv. algorithm                .... NR
   White noise on init. David. guess    .... on
   Maximum white noise                  ....   0.010
   Pseudo random numbers                .... off
   Inactive MOs                         .... canonical
   Orbital update algorithm             .... Taylor
   Preconditioner                       .... Diag
   Full preconditioner red. dimension   ....   250
 SOSCF                  CNVSOSCF        .... on
   Start iteration      SOSCFMaxIt      ....   150
   Startup grad/error   SOSCFStart      ....  0.003300
   Hessian update       SOSCFHessUp     .... L-BFGS
 Level Shifting         CNVShift        .... on
   Level shift para.    LevelShift      ....    0.2500
   Turn off err/grad.   ShiftErr        ....    0.0010
 Zerner damping         CNVZerner       .... off
 Static damping         CNVDamp         .... on
   Fraction old density DampFac         ....    0.7000
   Max. Damping (<1)    DampMax         ....    0.9800
   Min. Damping (>=0)   DampMin         ....    0.0000
   Turn off err/grad.   DampErr         ....    0.1000

SCF Procedure:
 Maximum # iterations   MaxIter         ....   125
 SCF integral mode      SCFMode         .... Direct
   Integral package                     .... SHARK and LIBINT hybrid scheme
 Reset frequency        DirectResetFreq ....    20
 Integral Threshold     Thresh          ....  1.000e-12 Eh
 Primitive CutOff       TCut            ....  1.000e-13 Eh

Convergence Tolerance:
 Convergence Check Mode ConvCheckMode   .... Total+1el-Energy
 Convergence forced     ConvForced      .... 0
 Energy Change          TolE            ....  1.000e-06 Eh
 1-El. energy change                    ....  1.000e-03 Eh
 Orbital Gradient       TolG            ....  5.000e-05
 Orbital Rotation angle TolX            ....  5.000e-05
 DIIS Error             TolErr          ....  1.000e-06

------------------------------
INITIAL GUESS: MODEL POTENTIAL
------------------------------
Loading Hartree-Fock densities                     ... done
Calculating cut-offs                               ... done
Initializing the effective Hamiltonian             ... done
Setting up the integral package (SHARK)            ... done
Starting the Coulomb interaction                   ... done (   0.3 sec)
Making the grid                                    ... done (   0.3 sec)
Mapping shells                                     ... done
Starting the XC term evaluation                    ... done (   0.1 sec)
  promolecular density results
     # of electrons  =    132.010155262
     EX              =   -105.969750000
     EC              =      0.169344239
     EX+EC           =   -105.800405760
Transforming the Hamiltonian                       ... done (   0.2 sec)
Diagonalizing the Hamiltonian                      ... done (   0.3 sec)
Back transforming the eigenvectors                 ... done (   0.1 sec)
Now organizing SCF variables                       ... done
                      ------------------
                      INITIAL GUESS DONE (   1.6 sec)
                      ------------------
             **** ENERGY FILE WAS UPDATED (compas3x_hc_c20h12_0pent_1_qz_riri.en.tmp) ****
Finished Guess after  17.0 sec
Maximum memory used throughout the entire GUESS-calculation: 152.9 MB


           ************************************************************
           *        Program running with 104 parallel MPI-processes   *
           *              working on a common directory               *
           ************************************************************

-------------------------------------------------------------------------------------------
                                      ORCA LEAN-SCF
                              memory conserving SCF solver
-------------------------------------------------------------------------------------------

----------------------------------------D-I-I-S--------------------------------------------
Iteration    Energy (Eh)           Delta-E    RMSDP     MaxDP     DIISErr   Damp  Time(sec)
-------------------------------------------------------------------------------------------
    1    -766.0692692885738779     0.00e+00  2.67e-04  2.00e-02  1.51e-01  0.700  10.6
    2    -765.9181190871520357     1.51e-01  2.37e-04  1.89e-02  1.34e-01  0.700  11.0
                               ***Turning on AO-DIIS***
    3    -766.0110683913474077    -9.29e-02  1.73e-04  1.53e-02  7.80e-02  0.700  10.0
    4    -766.1972649526667283    -1.86e-01  3.39e-04  3.33e-02  4.08e-02  0.000   9.7
    5    -766.4913505787701524    -2.94e-01  8.97e-05  8.12e-03  3.29e-02  0.000   9.5
    6    -766.5036573970953668    -1.23e-02  5.35e-05  5.08e-03  1.56e-02  0.000   9.2
    7    -766.5067089291276261    -3.05e-03  1.99e-05  2.03e-03  4.83e-03  0.000   9.3
                              *** Initializing SOSCF ***
---------------------------------------S-O-S-C-F--------------------------------------
Iteration    Energy (Eh)           Delta-E    RMSDP     MaxDP     MaxGrad    Time(sec)
--------------------------------------------------------------------------------------
    8    -766.5070397671649971    -3.31e-04  6.77e-06  5.03e-04  1.27e-03    10.1
    9    -766.5070700363214655    -3.03e-05  4.95e-06  3.76e-04  1.36e-04     9.7
   10    -766.5070727708277900    -2.73e-06  2.77e-06  2.04e-04  1.18e-04     9.5
   11    -766.5070730599261424    -2.89e-07  1.04e-06  7.45e-05  7.78e-05     9.5
                 **** Energy Check signals convergence ****

               *****************************************************
               *                     SUCCESS                       *
               *           SCF CONVERGED AFTER  11 CYCLES          *
               *****************************************************

             **** ENERGY FILE WAS UPDATED (compas3x_hc_c20h12_0pent_1_qz_riri.en.tmp) ****

----------------
TOTAL SCF ENERGY
----------------

Total Energy       :       -766.50707305992614 Eh          -20857.71784 eV

Components:
Nuclear Repulsion  :       1378.94107794916249 Eh           37522.89436 eV
Electronic Energy  :      -2145.44815100908863 Eh          -58380.61220 eV
One Electron Energy:      -3775.23609923202230 Eh         -102729.39692 eV
Two Electron Energy:       1629.78794822293366 Eh           44348.78472 eV

Virial components:
Potential Energy   :      -1531.32637244039688 Eh          -41669.50903 eV
Kinetic Energy     :        764.81929938047062 Eh           20811.79119 eV
Virial Ratio       :          2.00220676136288

DFT components:
N(Alpha)           :       66.000002959346 electrons
N(Beta)            :       66.000002959346 electrons
N(Total)           :      132.000005918692 electrons
E(X)               :      -33.421374001980 Eh       
E(C)               :       -1.964776406799 Eh       
E(XC)              :      -35.386150408779 Eh       

---------------
SCF CONVERGENCE
---------------

  Last Energy change         ...    2.8910e-07  Tolerance :   1.0000e-06
  Last MAX-Density change    ...    7.4481e-05  Tolerance :   1.0000e-05
  Last RMS-Density change    ...    1.0355e-06  Tolerance :   1.0000e-06
  Last DIIS Error            ...    1.2741e-03  Tolerance :   1.0000e-06
  Last Orbital Gradient      ...    7.7826e-05  Tolerance :   5.0000e-05
  Last Orbital Rotation      ...    1.3530e-04  Tolerance :   5.0000e-05


----------------
ORBITAL ENERGIES
----------------

  NO   OCC          E(Eh)            E(eV) 
   0   2.0000     -10.835934      -294.8608 
   1   2.0000     -10.835565      -294.8507 
   2   2.0000     -10.835195      -294.8406 
   3   2.0000     -10.834660      -294.8261 
   4   2.0000     -10.832724      -294.7734 
   5   2.0000     -10.831985      -294.7533 
   6   2.0000     -10.830738      -294.7194 
   7   2.0000     -10.830675      -294.7177 
   8   2.0000     -10.823046      -294.5101 
   9   2.0000     -10.821770      -294.4753 
  10   2.0000     -10.821731      -294.4743 
  11   2.0000     -10.821729      -294.4742 
  12   2.0000     -10.821619      -294.4712 
  13   2.0000     -10.821384      -294.4648 
  14   2.0000     -10.820798      -294.4489 
  15   2.0000     -10.820797      -294.4489 
  16   2.0000     -10.820513      -294.4411 
  17   2.0000     -10.820126      -294.4306 
  18   2.0000     -10.820125      -294.4306 
  19   2.0000     -10.819755      -294.4205 
  20   2.0000      -1.095381       -29.8068 
  21   2.0000      -1.053452       -28.6659 
  22   2.0000      -1.044589       -28.4247 
  23   2.0000      -0.997817       -27.1520 
  24   2.0000      -0.973131       -26.4803 
  25   2.0000      -0.958127       -26.0720 
  26   2.0000      -0.918205       -24.9856 
  27   2.0000      -0.913990       -24.8709 
  28   2.0000      -0.890096       -24.2208 
  29   2.0000      -0.876550       -23.8521 
  30   2.0000      -0.783948       -21.3323 
  31   2.0000      -0.777092       -21.1457 
  32   2.0000      -0.776968       -21.1424 
  33   2.0000      -0.771000       -20.9800 
  34   2.0000      -0.719616       -19.5817 
  35   2.0000      -0.687873       -18.7180 
  36   2.0000      -0.666610       -18.1394 
  37   2.0000      -0.665154       -18.0998 
  38   2.0000      -0.629430       -17.1277 
  39   2.0000      -0.614754       -16.7283 
  40   2.0000      -0.593641       -16.1538 
  41   2.0000      -0.586410       -15.9570 
  42   2.0000      -0.576293       -15.6817 
  43   2.0000      -0.557844       -15.1797 
  44   2.0000      -0.545937       -14.8557 
  45   2.0000      -0.531582       -14.4651 
  46   2.0000      -0.530736       -14.4421 
  47   2.0000      -0.527038       -14.3414 
  48   2.0000      -0.518989       -14.1224 
  49   2.0000      -0.513443       -13.9715 
  50   2.0000      -0.493912       -13.4400 
  51   2.0000      -0.475707       -12.9446 
  52   2.0000      -0.467514       -12.7217 
  53   2.0000      -0.463047       -12.6002 
  54   2.0000      -0.461019       -12.5450 
  55   2.0000      -0.456603       -12.4248 
  56   2.0000      -0.452263       -12.3067 
  57   2.0000      -0.413026       -11.2390 
  58   2.0000      -0.411276       -11.1914 
  59   2.0000      -0.399452       -10.8696 
  60   2.0000      -0.366558        -9.9746 
  61   2.0000      -0.355957        -9.6861 
  62   2.0000      -0.309834        -8.4310 
  63   2.0000      -0.304323        -8.2810 
  64   2.0000      -0.268921        -7.3177 
  65   2.0000      -0.245771        -6.6878 
  66   0.0000       0.007578         0.2062 
  67   0.0000       0.027025         0.7354 
  68   0.0000       0.045029         1.2253 
  69   0.0000       0.057899         1.5755 
  70   0.0000       0.075530         2.0553 
  71   0.0000       0.080683         2.1955 
  72   0.0000       0.082477         2.2443 
  73   0.0000       0.095968         2.6114 
  74   0.0000       0.096891         2.6365 
  75   0.0000       0.108141         2.9427 
  76   0.0000       0.116358         3.1663 
*Only the first 10 virtual orbitals were printed.
-------
TIMINGS
-------

Total SCF time: 0 days 0 hours 2 min 4 sec 

Total time                  ....     124.727 sec
Sum of individual times     ....     124.657 sec  ( 99.9%)

SCF preparation             ....      15.242 sec  ( 12.2%)
Fock matrix formation       ....      91.298 sec  ( 73.2%)
  Startup                   ....       1.556 sec  (  1.7% of F)
  RI-JK                     ....      76.841 sec  ( 84.2% of F)
  XC integration            ....       8.752 sec  (  9.6% of F)
    XC Preparation          ....       0.000 sec  (  0.0% of XC)
    Basis function eval.    ....       0.686 sec  (  7.8% of XC)
    Density eval.           ....       1.545 sec  ( 17.6% of XC)
    XC-Functional eval.     ....       0.024 sec  (  0.3% of XC)
    XC-Potential eval.      ....       2.378 sec  ( 27.2% of XC)
Diagonalization             ....       0.000 sec  (  0.0%)
Density matrix formation    ....       2.557 sec  (  2.1%)
Total Energy calculation    ....       1.404 sec  (  1.1%)
Population analysis         ....       0.000 sec  (  0.0%)
Orbital Transformation      ....       1.718 sec  (  1.4%)
Orbital Orthonormalization  ....       0.000 sec  (  0.0%)
DIIS solution               ....      10.000 sec  (  8.0%)
SOSCF solution              ....       2.349 sec  (  1.9%)
Finished LeanSCF after 125.2 sec

Maximum memory used throughout the entire LEANSCF-calculation: 421.0 MB


           ************************************************************
           *        Program running with 104 parallel MPI-processes   *
           *              working on a common directory               *
           ************************************************************

------------------------------------------------------------------------------
                                ORCA  MP2 
------------------------------------------------------------------------------


-------------
RI-MP2 ENERGY
-------------
Dimension of the orbital basis            ... 1500
Dimension of the AuxC basis               ... 3492
Memory devoted to MP2                     ... 4096 MB   
Data format for matrix containers         ... DOUBLE
Compression type for matrix containers    ... UNCOMPRESSED
Scaling for aa/bb pairs                   ...   5.710e-02
Scaling for ab pairs                      ...   5.979e-01
Overall scaling of the MP2 energy         ...   1.000e+00

-----------------------
SHARK RI TRANSFORMATION
-----------------------

Number of basis functions                ...   1500
Number of aux functions                  ...   3492
Number of operators                      ...      1
Generation of IJK                        ... NO
Generation of IAK                        ... YES
Generation of ABK                        ... NO
Orbital Range Operator  0:    0-  65 to   66-1499

Aux basis identifier                     ...   AUXC
Contraction scheme used                  ... SEGMENTED
Do orthogonalization                     ... YES
All operator combinations                ... NO
Transpose (ia|K)                         ... NO
Integral generator used                  ... LIBINT
Starting integral generation + trafo... 
Half trafo (segmented) done. Total time =  3.1 sec. integrals=  1.0 sec trafo=  1.8 sec
Integral generation and half transformation done (  3.1 sec)

Reading or making V^(-1/2)          ... done (  0.3 sec)
Sorting IAK integrals               ... done (  2.5 sec)

SHARK RI integral transformation done. Total time =  5.9 sec.

Opening buffers                              ... done

Starting loop over batches of integrals:

Operator 0  - window                       ... (  0- 65)x( 66-1499)
Operator 0  - Memory available             ...  4096 MB
Operator 0  - Memory needed per MO         ...  38.2 MB
Operator 0  - Number of orbitals per batch ... 1
Operator 0  - Number of batches            ... 1

OPERATOR  0   PASS   0:  MOs     0 ...    0 +    1 ...    1 +    2 ...    2 +    3 ...    3
                            +    4 ...    4 +    5 ...    5 +    6 ...    6 +    7 ...    7
                            +    8 ...    8 +    9 ...    9 +   10 ...   10 +   11 ...   11
                            +   12 ...   12 +   13 ...   13 +   14 ...   14 +   15 ...   15
                            +   16 ...   16 +   17 ...   17 +   18 ...   18 +   19 ...   19
                            +   20 ...   20 +   21 ...   21 +   22 ...   22 +   23 ...   23
                            +   24 ...   24 +   25 ...   25 +   26 ...   26 +   27 ...   27
                            +   28 ...   28 +   29 ...   29 +   30 ...   30 +   31 ...   31
                            +   32 ...   32 +   33 ...   33 +   34 ...   34 +   35 ...   35
                            +   36 ...   36 +   37 ...   37 +   38 ...   38 +   39 ...   39
                            +   40 ...   40 +   41 ...   41 +   42 ...   42 +   43 ...   43
                            +   44 ...   44 +   45 ...   45 +   46 ...   46 +   47 ...   47
                            +   48 ...   48 +   49 ...   49 +   50 ...   50 +   51 ...   51
                            +   52 ...   52 +   53 ...   53 +   54 ...   54 +   55 ...   55
                            +   56 ...   56 +   57 ...   57 +   58 ...   58 +   59 ...   59
                            +   60 ...   60 +   61 ...   61 +   62 ...   62 +   63 ...   63
                            +   64 ...   64 +   65 ...   65
  Reading integrals       ... ok
Time spent in pair loops =    19.922 sec

-----------------------------------------------
 RI-MP2 CORRELATION ENERGY:     -1.971378337 Eh
-----------------------------------------------


-------
TIMINGS
-------

Total time                :   27.865 sec
Integral trafo            :    6.079 sec ( 21.8%)
I/O of integrals          :    0.040 sec (  0.1%)
K(i,j) operators          :    0.257 sec (  0.9%)
T(i,j) pair energies      :    0.061 sec (  0.2%)
V**(-1/2)                 :    1.863 sec (  6.7%)


---------------------------------------
MP2 TOTAL ENERGY:     -768.478451397 Eh
---------------------------------------

Maximum memory used throughout the entire MP2-calculation: 294.2 MB


-------------------------------------------------------------------------------
                          DFT DISPERSION CORRECTION                            
                                                                               
                                DFTD4 V3.4.0                                   
-------------------------------------------------------------------------------
The REV-DSD-PBEP86-2021 functional is recognized
A user input s6-coefficient scaling factor has been recognized
A user input a1-coefficient scaling factor has been recognized
A user input s8-coefficient scaling factor has been recognized
A user input a2-coefficient scaling factor has been recognized
A user input s9-coefficient scaling factor has been recognized
Active option DFTDOPT                   ...         5   

-------------------------   ----------------
Dispersion correction           -0.031400448
-------------------------   ----------------


-------------------------   --------------------
FINAL SINGLE POINT ENERGY      -768.509851845375
-------------------------   --------------------



           ************************************************************
           *        Program running with 104 parallel MPI-processes   *
           *              working on a common directory               *
           ************************************************************

------------------------------------------------------------------------------
                              ORCA PROPERTY CALCULATIONS
------------------------------------------------------------------------------

GBWName                                 ... compas3x_hc_c20h12_0pent_1_qz_riri.gbw
Number of atoms                         ...     32
Number of basis functions               ...   1500
Max core memory                         ...   1024 MB

Electric properties:
Dipole moment                           ... YES
Quadrupole moment                       ...  NO
Static polarizability (Dipole/Dipole)   ...  NO
Static polarizability (Dipole/Quad.)    ...  NO
Static polarizability (Quad./Quad.)     ...  NO
Static polarizability (Velocity)        ...  NO

Atomic electric properties:
Dipole moment                           ...  NO
Quadrupole moment                       ...  NO
Static polarizability                   ...  NO

Choice of electric origin               ... Center of mass
Position of electric origin             ...    -0.021215    -0.092364     0.000146

General magnetic properties:
Magnetizability                         ...  NO

EPR properties:
g-Tensor (aka g-matrix)                 ...  NO
Zero-Field splitting spin-orbit         ...  NO
Zero-field splitting spin-spin          ...  NO
Hyperfine couplings                     ...  NO (   0 nuclei)
Quadrupole couplings                    ...  NO (   0 nuclei)
Contact density                         ...  NO (   0 nuclei)

NMR properties:
Chemical shifts                         ...  NO (   0 nuclei)
Spin-rotation constants                 ...  NO (   0 nuclei)
Spin-spin couplings                     ...  NO (   0 nuclei,    0 pairs)

Choice of magnetic origin               ... GIAO
Position of magnetic origin             ...     0.000000     0.000000     0.000000

Properties with geometric perturbations:
SCF Hessian                             ...  NO
IR spectrum                             ...  NO
VCD spectrum                            ...  NO
X-ray spectroscopy properties:
SCF XES/XAS/RIXS spectra                ...  NO


-------------
DIPOLE MOMENT
-------------

Method             : SCF
Type of density    : Electron Density
Multiplicity       :   1
Irrep              :   0
Energy             :  -766.5070730599261424 Eh
Relativity type    : 
Basis              : AO
                                X                 Y                 Z
Electronic contribution:     -0.364211591      -1.580206359       0.003340270
Nuclear contribution   :      0.368946146       1.600767806      -0.003561509
                        -----------------------------------------
Total Dipole Moment    :      0.004734555       0.020561447      -0.000221239
                        -----------------------------------------
Magnitude (a.u.)       :      0.021100665
Magnitude (Debye)      :      0.053633629



--------------------
Rotational spectrum 
--------------------
 
Rotational constants in cm-1:             0.017346             0.013034             0.007442 
Rotational constants in MHz :           520.023692           390.743005           223.105989 

Dipole components along the rotational axes: 
x,y,z [a.u.] :     0.021100    -0.000005    -0.000192 
x,y,z [Debye]:     0.053631    -0.000012    -0.000488 

 

Dipole moment calculation done in   0.2 sec 

Maximum memory used throughout the entire PROP-calculation: 165.8 MB

--------------------------------
SUGGESTED CITATIONS FOR THIS RUN
--------------------------------

Below you find a list of papers that are relevant to this ORCA run
We neither can nor want to force you to cite these papers, but we appreciate if you do
You receive ORCA, which is the product of decades of hard work by many enthusiastic individuals, for free
The only thing we kindly ask in return is that you cite our papers,
We deeply appreciate it, if you show your appreciation for ORCA by not just citing the generic ORCA reference.

Please note that relegating all ORCA citations to the supporting information does *not* help us.
SI sections are not indexed - citations you put there will not count into any citation statistics
But we need these citations in order to attract the funding resources that allow us to do what we are doing

Therefore, if you are a happy ORCA user, please consider citing a few of the papers listed below in the main body of your paper

In addition to the list printed below, the program has created the file compas3x_hc_c20h12_0pent_1_qz_riri.bibtex that contains the list in bibtex format
You can import this file easily into all common literature databanks and citation aid programs


List of essential papers. We consider these as the minimum necessary citations

  1. Neese,F.
     Software update: the ORCA program system, version 5.0
     WIRES Comput. Molec. Sci., 2022 12(1)e1606
     doi.org/10.1002/wcms.1606

List of papers to cite with high priority. The work reported in these papers was absolutely
necessary for this run to complete.
Our perspective: the developers of density functionals and basis sets usually get cited in chemistry papers
Good! But without the algorithms to do something with them, the functionals or basis sets would not do anything.
Hence, in our opinion, the algorithm design and method developments papers are equally worthy of getting cited

  1. Neese,F.
     An improvement of the resolution of the identity approximation for the formation of the Coulomb matrix
     J. Comp. Chem., 2003 24(14)1740-1747
     doi.org/10.1002/jcc.10318
  2. Kossmann,S.; Neese,F.
     Comparison of two efficient approximate Hartee-Fock approaches
     Chem. Phys. Lett., 2009 481 240-243
     doi.org/10.1016/j.cplett.2009.09.073
  3. Neese,F.
     The SHARK Integral Generation and Digestion System
     J. Comp. Chem., 2022  1-16
     doi.org/10.1002/jcc.26942
  4. Caldeweyher,E.; Bannwarth,C.; Grimme,S.
     Extension of the D3 dispersion coefficient model
     J. Chem. Phys., 2017 147 034112
     doi.org/10.1063/1.4993215
  5. Caldeweyher,E.; Ehlert,S.; Hansen,A.; Neugebauer,H.; Spicher,S.; Bannwarth,C.; Grimme,S.
     A generally applicable atomic-charge dependent London dispersion correction
     J. Chem. Phys., 2019 150 154122
     doi.org/10.1063/1.5090222
  6. Caldeweyher,E.; Mewes,J.; Ehlert,S.; Grimme,S.
     Extension and evaluation of the D4 London-dispersion model for periodic systems
     Phys. Chem. Chem. Phys., 2020 22(16)8499-8512
     doi.org/10.1039/D0CP00502A
  7. Wittmann,L.; Gordiy,I.; Friede,M.; Helmich-Paris,B.; Grimme,S.; Hansen,A.; Bursch,M.
     Extension of the D3 and D4 London Dispersion Corrections to the full Actinides Series
     Phys. Chem. Chem. Phys., 2024 26(32)21379-21394
     doi.org/https://doi.org/10.1039/D4CP01514B 

List of suggested additional citations. These are papers that are important in the 'surrounding' of 
of this run, or papers that preceded the highly important papers. If you like your results we are grateful for a citation.

  1. Neese,F.
     The ORCA program system
     WIRES Comput. Molec. Sci., 2012 2(1)73-78
     doi.org/10.1002/wcms.81
  2. Neese,F.
     Software update: the ORCA program system, version 4.0
     WIRES Comput. Molec. Sci., 2018 8(1)1-6
     doi.org/10.1002/wcms.1327
  3. Neese,F.; Wennmohs,F.; Becker,U.; Riplinger,C.
     The ORCA quantum chemistry program package
     J. Chem. Phys., 2020 152 Art. No. L224108
     doi.org/10.1063/5.0004608

List of optional additional citations

  1. Neese,F.
     Approximate second-order SCF convergence for spin unrestricted wavefunctions
     Chem. Phys. Lett., 2000 325(1-3)93-98
     doi.org/10.1016/s0009-2614(00)00662-x

Timings for individual modules:

Sum of individual times          ...      231.839 sec (=   3.864 min)
Startup calculation              ...       25.000 sec (=   0.417 min)  10.8 %
SCF iterations                   ...      145.285 sec (=   2.421 min)  62.7 %
Property calculations            ...       16.410 sec (=   0.273 min)   7.1 %
MP2 module                       ...       45.145 sec (=   0.752 min)  19.5 %
                             ****ORCA TERMINATED NORMALLY****
TOTAL RUN TIME: 0 days 0 hours 4 minutes 21 seconds 28 msec
