
                                 *****************
                                 * O   R   C   A *
                                 *****************

                                            #,                                       
                                            ###                                      
                                            ####                                     
                                            #####                                    
                                            ######                                   
                                           ########,                                 
                                     ,,################,,,,,                         
                               ,,#################################,,                 
                          ,,##########################################,,             
                       ,#########################################, ''#####,          
                    ,#############################################,,   '####,        
                  ,##################################################,,,,####,       
                ,###########''''           ''''###############################       
              ,#####''   ,,,,##########,,,,          '''####'''          '####       
            ,##' ,,,,###########################,,,                        '##       
           ' ,,###''''                  '''############,,,                           
         ,,##''                                '''############,,,,        ,,,,,,###''
      ,#''                                            '''#######################'''  
     '                                                          ''''####''''         
             ,#######,   #######,   ,#######,      ##                                
            ,#'     '#,  ##    ##  ,#'     '#,    #''#        ,####,   ,####,        
            ##       ##  ##   ,#'  ##            #'  '#       #'       #'  '#        
            ##       ##  #######   ##           ,######,      #####,   #    #        
            '#,     ,#'  ##    ##  '#,     ,#' ,#      #,     #,   #   #,  ,#        
             '#######'   ##     ##  '#######'  #'      '#     '####' # '####'        



                #########################################################
                #                        -***-                          #
                #          Department of theory and spectroscopy        #
                #                                                       #
                #                      Frank Neese                      #
                #                                                       #
                #     Directorship, Architecture, Infrastructure        #
                #                    SHARK, DRIVERS                     #
                #        Core code/Algorithms in most modules           #
                #                                                       #
                #        Max Planck Institute fuer Kohlenforschung      #
                #                Kaiser Wilhelm Platz 1                 #
                #                 D-45470 Muelheim/Ruhr                 #
                #                      Germany                          #
                #                                                       #
                #                  All rights reserved                  #
                #                        -***-                          #
                #########################################################


                         Program Version 6.0.1  -  RELEASE   -


 With contributions from (in alphabetic order):
[Max-Planck-Institut fuer Kohlenforschung]                               
  Daniel Aravena         : Magnetic Suceptibility                        
  Michael Atanasov       : Ab Initio Ligand Field Theory (pilot matlab implementation)
  Alexander A. Auer      : GIAO ZORA, VPT2 properties, NMR spectrum      
  Ute Becker             : All parallelization in ORCA, NUMFREQ, NUMCALC 
  Giovanni Bistoni       : ED, misc. LED, open-shell LED, HFLD           
  Martin Brehm           : Molecular dynamics                            
  Dmytro Bykov           : pre 5.0 version of the SCF Hessian            
  Marcos Casanova-Páez   : Triplet and SCS-CIS(D). UHF-(DLPNO)-IP/EA/STEOM-CCSD. UHF-CVS-IP/STEOM-CCSD   
  Vijay G. Chilkuri      : MRCI spin determinant printing, contributions to CSF-ICE 
  Pauline Colinet        : FMM embedding                                 
  Dipayan Datta          : RHF DLPNO-CCSD density                        
  Achintya Kumar Dutta   : EOM-CC, STEOM-CC                              
  Nicolas Foglia         : Exact transition moments, OPA infrastructure, MCD improvements    
  Dmitry Ganyushin       : Spin-Orbit,Spin-Spin,Magnetic field MRCI      
  Miquel Garcia-Rates    : C-PCM and meta-GGA Hessian, CCSD/C-PCM, Gaussian charge scheme 
  Tiago L. C. Gouveia    : GS-ROHF, GS-ROCIS                             
  Yang Guo               : DLPNO-NEVPT2, F12-NEVPT2, CIM, IAO-localization        
  Andreas Hansen         : Spin unrestricted coupled pair/coupled cluster methods 
  Ingolf Harden          : AUTO-CI MPn and infrastructure                
  Benjamin Helmich-Paris : MC-RPA, TRAH-(SCF,CASSCF), AVAS, COSX integrals, SCF dyn. polar. 
  Lee Huntington         : MR-EOM, pCC                                   
  Robert Izsak           : Overlap fitted RIJCOSX, COSX-SCS-MP3, EOM     
  Riya Kayal             : Wick's Theorem for AUTO-CI, AUTO-CI UHF-CCSDT 
  Emily Kempfer          : AUTO-CI, RHF CISDT and CCSDT                  
  Christian Kollmar      : KDIIS, OOCD, Brueckner-CCSD(T), CCSD density, CASPT2, CASPT2-K, improved NEVPT2 
  Axel Koslowski         : Symmetry handling                             
  Simone Kossmann        : meta-GGA functionals, TD-DFT gradient, OOMP2, (MP2 Hessian; deprecated post 5.0) 
  Lucas Lang             : DCDCAS                                        
  Marvin Lechner         : AUTO-CI (C++ implementation), FIC-MRCC        
  Spencer Leger          : CASSCF response                               
  Dagmar Lenk            : GEPOL surface, SMD, ORCA-2-JSON               
  Dimitrios Liakos       : Extrapolation schemes; Compound Job, initial MDCI parallelization 
  Dimitrios Manganas     : Further ROCIS development; embedding schemes. LFT, Crystal Embedding 
  Dimitrios Pantazis     : SARC Basis sets                               
  Anastasios Papadopoulos: AUTO-CI, single reference methods and gradients 
  Taras Petrenko         : pre 6.0 DFT Hessian and TD-DFT gradient, (ASA, deprecated), ECA, 1-Electron XAS/XES, NRVS 
  Peter Pinski           : DLPNO-MP2, DLPNO-MP2 Gradient                 
  Christoph Reimann      : Effective Core Potentials                     
  Marius Retegan         : Local ZFS, SOC                                
  Christoph Riplinger    : Optimizer, TS searches, QM/MM, DLPNO-CCSD(T), (RO)-DLPNO pert. Triples 
  Michael Roemelt        : Original ROCIS implementation                 
  Masaaki Saitow         : Open-shell DLPNO-CCSD energy and density      
  Barbara Sandhoefer     : DKH picture change effects                    
  Kantharuban Sivalingam : CASSCF convergence/infrastructure, NEVPT2 and variants, FIC-MRCI 
  Bernardo de Souza      : ESD, SOC TD-DFT                               
  Georgi L. Stoychev     : AutoAux, RI-MP2 NMR, DLPNO-MP2 response, X2C  
  Van Anh Tran           : RI-MP2 g-tensors                              
  Willem Van den Heuvel  : Paramagnetic NMR                              
  Zikuan Wang            : NOTCH, Electric field optimization            
  Frank Wennmohs         : Technical directorship and infrastructure     
  Hang Xu                : AUTO-CI-Response properties                   
                                                                         
[FACCTs GmbH]                                                            
  Markus Bursch, Miquel Garcia-Rates, Christoph Riplinger, Bernardo de Souza, Georgi L. Stoychev 
                                                                 
  APM, Basis sets (HGBS, AHGBS, def-TZVP (Ac-Lr), def2-XVPD (La-Lu)), CI-OPT, improved COSX, DLPNO-Multilevel,           
  DOCKER, DRACO, updates on ESD, GOAT, IRC, LR-CPCM, MBIS, meta-GGA TD-DFT gradient, ML-optimized integration grids, 
  MM, NACMEs, nearIR, NEB, NEB-TS, NL-DFT gradient (VV10), 2- and 3-layer-ONIOM, interface openCOSMO-RS, QMMM,   
  Crystal-QMMM, SF, symmetry and pop. for TD-DFT, r2SCAN hybrids, SOLVATOR                                   
                                                                         
[Other institutions]                                                     
  V. Asgeirsson          : NEB                                           
  Christoph Bannwarth    : sTDA-DFT, sTD-DFT, PBEh-3c, B97-3c, D3        
  Sebastian Ehlert       : rSCAN, r2SCAN, r2SCAN-3c, D4, dhf basis sets  
  Marvin Friede          : D4 for Fr, Ra, Ac-Lr                          
  Lars Goerigk           : TD-DFT with DH, B97 family of functionals     
  Stefan Grimme          : VdW corrections, initial TS optimization, DFT functionals, gCP, sTDA/sTD-DF 
  Waldemar Hujo          : DFT-NL                                        
  H. Jonsson             : NEB                                           
  Holger Kruse           : gCP                                           
  Marcel Mueller         : wB97X-3c, vDZP basis set                      
  Hagen Neugebauer       : wr2SCAN                                       
  Tobias Risthaus        : range-separated hybrid DFT                    
  Lukas Wittmann         : regularized MP2, r2SCAN double-hybrids, wr2SCAN        
                                                                         
We gratefully acknowledge several colleagues who have allowed us to      
interface, adapt or use parts of their codes:                            
  Ed Valeev, F. Pavosevic, A. Kumar             : LibInt (2-el integral package), F12 methods 
  Garnet Chan, S. Sharma, J. Yang, R. Olivares  : DMRG                   
  Ulf Ekstrom                                   : XCFun DFT Library      
  Mihaly Kallay                                 : mrcc  (arbitrary order and MRCC methods)
  Frank Weinhold                                : gennbo (NPA and NBO analysis)           
  Simon Mueller                                 : openCOSMO-RS                            
  Christopher J. Cramer and Donald G. Truhlar   : smd solvation model                     
  S Lehtola, MJT Oliveira, MAL Marques          : LibXC Library                           
  Liviu Ungur et al                             : ANISO software                          


 Your calculation uses the libint2 library for the computation of 2-el integrals
 For citations please refer to: http://libint.valeyev.net

 Your ORCA version has been built with support for libXC version: 6.2.2
 For citations please refer to: https://libxc.gitlab.io

 This ORCA versions uses:
   CBLAS   interface :  Fast vector & matrix operations
   LAPACKE interface :  Fast linear algebra routines
   SCALAPACK package :  Parallel linear algebra routines
   Shared memory     :  Shared parallel matrices
   BLAS/LAPACK       :  OpenBLAS 0.3.27  USE64BITINT DYNAMIC_ARCH NO_AFFINITY SapphireRapids SINGLE_THREADED
        Core in use  :  SapphireRapids
   Copyright (c) 2011-2014, The OpenBLAS Project


Warning! Weird basis set assignment to AuxJK basis!


***************************************
The coordinates will be read from file: /g/data/kx58/rs2200/dhdft/inputs/compas3D-xyzs/hc_c26h14_0pent_2.xyz
***************************************


Your calculation utilizes the atom-pairwise dispersion correction
based on EEQ partial charges (D4)


================================================================================

----- Orbital basis set information -----
Your calculation utilizes the basis: def2-QZVPP
   F. Weigend and R. Ahlrichs, Phys. Chem. Chem. Phys. 7, 3297 (2005).

----- AuxC basis set information -----
Your calculation utilizes the auxiliary basis: def2-QZVPP/C
  H-La, Hf-Rn : A. Hellweg, C. Hattig, S. Hofener and W. Klopper, Theor. Chem. Acc. 117, 587 (2007).
        Ce-Lu : J. Chmela and M. E. Harding, Mol. Phys. (2018).

----- AuxJK basis set information -----
Your calculation utilizes the auxiliary basis: def2-QZVPP/C
  H-La, Hf-Rn : A. Hellweg, C. Hattig, S. Hofener and W. Klopper, Theor. Chem. Acc. 117, 587 (2007).
        Ce-Lu : J. Chmela and M. E. Harding, Mol. Phys. (2018).

================================================================================
                                        WARNINGS
                       Please study these warnings very carefully!
================================================================================


WARNING: No MP2 level density has been requested!
         To calculate MP2 level properties use
         %mp2 Density relaxed end
         or
         %mp2 Density unrelaxed end
         Otherwise for double-hybrid DFT only the energy is correct!

================================================================================
                                       INPUT FILE
================================================================================
NAME = compas3D_hc_c26h14_0pent_2_qz_riri.inp
|  1> ! RKS revDSD-PBEP86-D4/2021 defgrid3  RIJK NOPOP NoFrozencore NoUseSym
|  2> 
|  3> %basis
|  4> Basis "def2-QZVPP"
|  5> AuxJK "def2-QZVPP/C"
|  6> AuxC "def2-QZVPP/C"
|  7> end
|  8> 
|  9> %method
| 10> ScalHFX 0.69
| 11> ScalDFX 0.31
| 12> ScalDFC 0.4038
| 13> ScalLDAC 0.4038
| 14> 
| 15> D4S6 0.4612
| 16> D4S8 0.0
| 17> D4A1 0.44
| 18> D4A2 3.60
| 19> end
| 20> 
| 21> %mp2
| 22> PS 0.5979
| 23> PT 0.0571
| 24> 
| 25> end
| 26> 
| 27> %pal
| 28> nprocs 104
| 29> end
| 30> 
| 31> *XYZFILE 0 1 /g/data/kx58/rs2200/dhdft/inputs/compas3D-xyzs/hc_c26h14_0pent_2.xyz
| 32> 
| 33>                          ****END OF INPUT****
================================================================================

                       ****************************
                       * Single Point Calculation *
                       ****************************

---------------------------------
CARTESIAN COORDINATES (ANGSTROEM)
---------------------------------
  C     -0.542481   -0.968633   -0.001601
  C     -0.893714    0.404277   -0.003904
  C      0.112064    1.392659   -0.000509
  C      1.484839    0.997771    0.005262
  C      1.805584   -0.349500    0.007533
  C      0.821831   -1.357267    0.004280
  C     -1.583400   -1.968308   -0.005358
  C     -2.965972   -1.531281   -0.011339
  C     -3.295144   -0.225562   -0.013301
  C     -2.279427    0.808578   -0.009726
  C     -2.600745    2.142920   -0.011779
  C     -1.602747    3.159241   -0.008479
  C     -0.233961    2.773459   -0.002825
  C      0.785733    3.767371    0.000536
  C      2.164987    3.339179    0.006341
  C      2.496067    2.028381    0.008562
  C      1.157412   -2.771000    0.006663
  C      0.109280   -3.729185    0.002800
  C     -1.247490   -3.295643   -0.003226
  C     -1.922418    4.530844   -0.010625
  C     -0.923856    5.488562   -0.007368
  C      0.422411    5.112776   -0.001847
  C      2.489124   -3.244235    0.012663
  C      2.772764   -4.591756    0.014680
  C      1.730480   -5.538077    0.010802
  C      0.425203   -5.109624    0.004998
  H      2.861017   -0.619900    0.011912
  H     -3.742033   -2.299933   -0.014230
  H     -4.342375    0.084568   -0.017718
  H     -3.651860    2.441721   -0.016072
  H      2.942316    4.106663    0.008972
  H      3.544420    1.721539    0.012932
  H     -2.036935   -4.051244   -0.006225
  H     -2.972888    4.829958   -0.014883
  H     -1.188493    6.547897   -0.009099
  H      1.203844    5.876094    0.000710
  H      3.317314   -2.536540    0.015827
  H      3.811734   -4.927108    0.019305
  H      1.961330   -6.605141    0.012404
  H     -0.394814   -5.831524    0.001934

----------------------------
CARTESIAN COORDINATES (A.U.)
----------------------------
  NO LB      ZA    FRAG     MASS         X           Y           Z
   0 C     6.0000    0    12.011   -1.025140   -1.830451   -0.003025
   1 C     6.0000    0    12.011   -1.688875    0.763973   -0.007377
   2 C     6.0000    0    12.011    0.211771    2.631745   -0.000963
   3 C     6.0000    0    12.011    2.805940    1.885514    0.009943
   4 C     6.0000    0    12.011    3.412058   -0.660459    0.014235
   5 C     6.0000    0    12.011    1.553036   -2.564862    0.008087
   6 C     6.0000    0    12.011   -2.992192   -3.719564   -0.010125
   7 C     6.0000    0    12.011   -5.604875   -2.893702   -0.021428
   8 C     6.0000    0    12.011   -6.226920   -0.426250   -0.025136
   9 C     6.0000    0    12.011   -4.307493    1.527991   -0.018379
  10 C     6.0000    0    12.011   -4.914696    4.049532   -0.022258
  11 C     6.0000    0    12.011   -3.028753    5.970100   -0.016024
  12 C     6.0000    0    12.011   -0.442122    5.241077   -0.005339
  13 C     6.0000    0    12.011    1.484821    7.119300    0.001012
  14 C     6.0000    0    12.011    4.091232    6.310134    0.011982
  15 C     6.0000    0    12.011    4.716883    3.833085    0.016180
  16 C     6.0000    0    12.011    2.187192   -5.236430    0.012592
  17 C     6.0000    0    12.011    0.206509   -7.047139    0.005292
  18 C     6.0000    0    12.011   -2.357415   -6.227862   -0.006097
  19 C     6.0000    0    12.011   -3.632844    8.562055   -0.020079
  20 C     6.0000    0    12.011   -1.745835   10.371879   -0.013924
  21 C     6.0000    0    12.011    0.798241    9.661747   -0.003490
  22 C     6.0000    0    12.011    4.703763   -6.130716    0.023929
  23 C     6.0000    0    12.011    5.239765   -8.677160    0.027742
  24 C     6.0000    0    12.011    3.270134  -10.465449    0.020412
  25 C     6.0000    0    12.011    0.803518   -9.655791    0.009445
  26 H     1.0000    0     1.008    5.406539   -1.171441    0.022510
  27 H     1.0000    0     1.008   -7.071418   -4.346244   -0.026890
  28 H     1.0000    0     1.008   -8.205900    0.159810   -0.033483
  29 H     1.0000    0     1.008   -6.901015    4.614184   -0.030371
  30 H     1.0000    0     1.008    5.560171    7.760469    0.016955
  31 H     1.0000    0     1.008    6.697984    3.253237    0.024438
  32 H     1.0000    0     1.008   -3.849250   -7.655742   -0.011763
  33 H     1.0000    0     1.008   -5.617945    9.127298   -0.028125
  34 H     1.0000    0     1.008   -2.245927   12.373733   -0.017194
  35 H     1.0000    0     1.008    2.274935   11.104209    0.001341
  36 H     1.0000    0     1.008    6.268816   -4.793365    0.029908
  37 H     1.0000    0     1.008    7.203134   -9.310884    0.036481
  38 H     1.0000    0     1.008    3.706376  -12.481908    0.023440
  39 H     1.0000    0     1.008   -0.746090  -11.019984    0.003655

--------------------------------
INTERNAL COORDINATES (ANGSTROEM)
--------------------------------
 C      0   0   0     0.000000000000     0.00000000     0.00000000
 C      1   0   0     1.417128419552     0.00000000     0.00000000
 C      2   1   0     1.410142121339   120.14950061     0.00000000
 C      3   2   1     1.428454233832   119.45185432     0.00000000
 C      4   3   2     1.384925937158   119.43948911     0.00000000
 C      5   4   3     1.408323020216   122.29934932     0.00000000
 C      1   2   3     1.443217827035   119.49140027   180.01047060
 C      7   1   2     1.450011865996   118.61662111     0.00000000
 C      8   7   1     1.346573639162   121.69110608     0.00000000
 C      2   1   3     1.443500267353   120.61572559   180.00011928
 C     10   2   1     1.372486132835   119.80482602   179.99496528
 C     11  10   2     1.424401042769   121.98140684     0.00000000
 C     12  11  10     1.422123597835   118.73898786     0.00000000
 C     13  12  11     1.423956051743   119.99372188   179.99821341
 C     14  13  12     1.444202840800   118.48677405   179.99632455
 C     15  14  13     1.351965751262   121.42242657     0.00000000
 C      6   5   4     1.453017946936   122.33717440   180.00020945
 C     17   6   5     1.420111065987   119.07931521   180.01446017
 C      7   1   2     1.369180899822   119.63997020   179.99620030
 C     12  11  10     1.408364198003   122.40141840   179.99627576
 C     20  12  11     1.383603904356   120.68415669   180.00394559
 C     14  13  12     1.393600526410   119.15395818     0.00000000
 C     17   6   5     1.413310344311   122.91649220     0.00000000
 C     23  17   6     1.377049826215   121.44984747   180.00487971
 C     24  23  17     1.407798025905   120.35018230     0.00000000
 C     25  24  23     1.373809690237   119.59081485     0.00000000
 H      5   4   3     1.089530160587   117.76123739   179.99800124
 H      8   7   1     1.092293645515   117.73354521   179.99392757
 H      9   8   7     1.092196342098   120.64578338   180.00633974
 H     11  10   2     1.092768756008   119.40838809   180.00715732
 H     15  14  13     1.092373161231   118.11835619   180.00455232
 H     16  15  14     1.092344109555   120.48956860   179.99817657
 H     19   7   1     1.092779287154   119.54301056   180.00888469
 H     20  12  11     1.092233573318   119.01341863     0.00000000
 H     21  20  12     1.091891925493   119.77730342   179.99975727
 H     22  14  13     1.092381847658   119.21567833   180.00108267
 H     23  17   6     1.089376809876   119.92308715     0.00000000
 H     24  23  17     1.091760746919   119.77546059   179.99781050
 H     25  24  23     1.091750635868   120.02956281   179.99866839
 H     26  25  24     1.092509741861   120.46910006   180.00006917

---------------------------
INTERNAL COORDINATES (A.U.)
---------------------------
 C      0   0   0     0.000000000000     0.00000000     0.00000000
 C      1   0   0     2.677984609550     0.00000000     0.00000000
 C      2   1   0     2.664782419238   120.14950061     0.00000000
 C      3   2   1     2.699387296783   119.45185432     0.00000000
 C      4   3   2     2.617130736993   119.43948911     0.00000000
 C      5   4   3     2.661344816304   122.29934932     0.00000000
 C      1   2   3     2.727286444688   119.49140027   180.01047060
 C      7   1   2     2.740125317669   118.61662111     0.00000000
 C      8   7   1     2.544655397174   121.69110608     0.00000000
 C      2   1   3     2.727820179540   120.61572559   180.00011928
 C     10   2   1     2.593622913662   119.80482602   179.99496528
 C     11  10   2     2.691727875706   121.98140684     0.00000000
 C     12  11  10     2.687424128495   118.73898786     0.00000000
 C     13  12  11     2.690886964535   119.99372188   179.99821341
 C     14  13  12     2.729147850944   118.48677405   179.99632455
 C     15  14  13     2.554845012327   121.42242657     0.00000000
 C      6   5   4     2.745805987382   122.33717440   180.00020945
 C     17   6   5     2.683620994466   119.07931521   180.01446017
 C      7   1   2     2.587376928459   119.63997020   179.99620030
 C     12  11  10     2.661422631045   122.40141840   179.99627576
 C     20  12  11     2.614632457058   120.68415669   180.00394559
 C     14  13  12     2.633523335003   119.15395818     0.00000000
 C     17   6   5     2.670769492986   122.91649220     0.00000000
 C     23  17   6     2.602247044310   121.44984747   180.00487971
 C     24  23  17     2.660352720835   120.35018230     0.00000000
 C     25  24  23     2.596124074675   119.59081485     0.00000000
 H      5   4   3     2.058913618158   117.76123739   179.99800124
 H      8   7   1     2.064135847845   117.73354521   179.99392757
 H      9   8   7     2.063951971036   120.64578338   180.00633974
 H     11  10   2     2.065033676561   119.40838809   180.00715732
 H     15  14  13     2.064286110773   118.11835619   180.00455232
 H     16  15  14     2.064231211061   120.48956860   179.99817657
 H     19   7   1     2.065053577543   119.54301056   180.00888469
 H     20  12  11     2.064022327846   119.01341863     0.00000000
 H     21  20  12     2.063376707022   119.77730342   179.99975727
 H     22  14  13     2.064302525741   119.21567833   180.00108267
 H     23  17   6     2.058623827310   119.92308715     0.00000000
 H     24  23  17     2.063128815442   119.77546059   179.99781050
 H     25  24  23     2.063109708325   120.02956281   179.99866839
 H     26  25  24     2.064544210758   120.46910006   180.00006917

---------------------
BASIS SET INFORMATION
---------------------
There are 2 groups of distinct atoms

 Group   1 Type C   : 15s8p3d2f1g contracted to 7s4p3d2f1g pattern {8211111/5111/111/11/1}
 Group   2 Type H   : 7s3p2d1f contracted to 4s3p2d1f pattern {4111/111/11/1}

Atom   0C    basis set group =>   1
Atom   1C    basis set group =>   1
Atom   2C    basis set group =>   1
Atom   3C    basis set group =>   1
Atom   4C    basis set group =>   1
Atom   5C    basis set group =>   1
Atom   6C    basis set group =>   1
Atom   7C    basis set group =>   1
Atom   8C    basis set group =>   1
Atom   9C    basis set group =>   1
Atom  10C    basis set group =>   1
Atom  11C    basis set group =>   1
Atom  12C    basis set group =>   1
Atom  13C    basis set group =>   1
Atom  14C    basis set group =>   1
Atom  15C    basis set group =>   1
Atom  16C    basis set group =>   1
Atom  17C    basis set group =>   1
Atom  18C    basis set group =>   1
Atom  19C    basis set group =>   1
Atom  20C    basis set group =>   1
Atom  21C    basis set group =>   1
Atom  22C    basis set group =>   1
Atom  23C    basis set group =>   1
Atom  24C    basis set group =>   1
Atom  25C    basis set group =>   1
Atom  26H    basis set group =>   2
Atom  27H    basis set group =>   2
Atom  28H    basis set group =>   2
Atom  29H    basis set group =>   2
Atom  30H    basis set group =>   2
Atom  31H    basis set group =>   2
Atom  32H    basis set group =>   2
Atom  33H    basis set group =>   2
Atom  34H    basis set group =>   2
Atom  35H    basis set group =>   2
Atom  36H    basis set group =>   2
Atom  37H    basis set group =>   2
Atom  38H    basis set group =>   2
Atom  39H    basis set group =>   2
---------------------------------
AUXILIARY/C BASIS SET INFORMATION
---------------------------------
There are 2 groups of distinct atoms

 Group   1 Type C   : 9s8p7d5f3g1h contracted to 9s8p7d5f3g1h pattern {111111111/11111111/1111111/11111/111/1}
 Group   2 Type H   : 6s4p3d2f1g contracted to 6s4p3d2f1g pattern {111111/1111/111/11/1}

Atom   0C    basis set group =>   1
Atom   1C    basis set group =>   1
Atom   2C    basis set group =>   1
Atom   3C    basis set group =>   1
Atom   4C    basis set group =>   1
Atom   5C    basis set group =>   1
Atom   6C    basis set group =>   1
Atom   7C    basis set group =>   1
Atom   8C    basis set group =>   1
Atom   9C    basis set group =>   1
Atom  10C    basis set group =>   1
Atom  11C    basis set group =>   1
Atom  12C    basis set group =>   1
Atom  13C    basis set group =>   1
Atom  14C    basis set group =>   1
Atom  15C    basis set group =>   1
Atom  16C    basis set group =>   1
Atom  17C    basis set group =>   1
Atom  18C    basis set group =>   1
Atom  19C    basis set group =>   1
Atom  20C    basis set group =>   1
Atom  21C    basis set group =>   1
Atom  22C    basis set group =>   1
Atom  23C    basis set group =>   1
Atom  24C    basis set group =>   1
Atom  25C    basis set group =>   1
Atom  26H    basis set group =>   2
Atom  27H    basis set group =>   2
Atom  28H    basis set group =>   2
Atom  29H    basis set group =>   2
Atom  30H    basis set group =>   2
Atom  31H    basis set group =>   2
Atom  32H    basis set group =>   2
Atom  33H    basis set group =>   2
Atom  34H    basis set group =>   2
Atom  35H    basis set group =>   2
Atom  36H    basis set group =>   2
Atom  37H    basis set group =>   2
Atom  38H    basis set group =>   2
Atom  39H    basis set group =>   2
----------------------------------
AUXILIARY/JK BASIS SET INFORMATION
----------------------------------
There are 2 groups of distinct atoms

 Group   1 Type C   : 9s8p7d5f3g1h contracted to 9s8p7d5f3g1h pattern {111111111/11111111/1111111/11111/111/1}
 Group   2 Type H   : 6s4p3d2f1g contracted to 6s4p3d2f1g pattern {111111/1111/111/11/1}

Atom   0C    basis set group =>   1
Atom   1C    basis set group =>   1
Atom   2C    basis set group =>   1
Atom   3C    basis set group =>   1
Atom   4C    basis set group =>   1
Atom   5C    basis set group =>   1
Atom   6C    basis set group =>   1
Atom   7C    basis set group =>   1
Atom   8C    basis set group =>   1
Atom   9C    basis set group =>   1
Atom  10C    basis set group =>   1
Atom  11C    basis set group =>   1
Atom  12C    basis set group =>   1
Atom  13C    basis set group =>   1
Atom  14C    basis set group =>   1
Atom  15C    basis set group =>   1
Atom  16C    basis set group =>   1
Atom  17C    basis set group =>   1
Atom  18C    basis set group =>   1
Atom  19C    basis set group =>   1
Atom  20C    basis set group =>   1
Atom  21C    basis set group =>   1
Atom  22C    basis set group =>   1
Atom  23C    basis set group =>   1
Atom  24C    basis set group =>   1
Atom  25C    basis set group =>   1
Atom  26H    basis set group =>   2
Atom  27H    basis set group =>   2
Atom  28H    basis set group =>   2
Atom  29H    basis set group =>   2
Atom  30H    basis set group =>   2
Atom  31H    basis set group =>   2
Atom  32H    basis set group =>   2
Atom  33H    basis set group =>   2
Atom  34H    basis set group =>   2
Atom  35H    basis set group =>   2
Atom  36H    basis set group =>   2
Atom  37H    basis set group =>   2
Atom  38H    basis set group =>   2
Atom  39H    basis set group =>   2


           ************************************************************
           *        Program running with 104 parallel MPI-processes   *
           *              working on a common directory               *
           ************************************************************
------------------------------------------------------------------------------
                             ORCA STARTUP CALCULATIONS
                           -- RI-GTO INTEGRALS CHOSEN --
------------------------------------------------------------------------------
------------------------------------------------------------------------------
                   ___                                                        
                  /   \      - P O W E R E D   B Y -                         
                 /     \                                                     
                 |  |  |   _    _      __       _____    __    __             
                 |  |  |  | |  | |    /  \     |  _  \  |  |  /  |          
                  \  \/   | |  | |   /    \    | | | |  |  | /  /          
                 / \  \   | |__| |  /  /\  \   | |_| |  |  |/  /          
                |  |  |   |  __  | /  /__\  \  |    /   |      \           
                |  |  |   | |  | | |   __   |  |    \   |  |\   \          
                \     /   | |  | | |  |  |  |  | |\  \  |  | \   \       
                 \___/    |_|  |_| |__|  |__|  |_| \__\ |__|  \__/        
                                                                              
                      - O R C A' S   B I G   F R I E N D -                    
                                      &                                       
                       - I N T E G R A L  F E E D E R -                       
                                                                              
 v1 FN, 2020, v2 2021, v3 2022-2024                                           
------------------------------------------------------------------------------


----------------------
SHARK INTEGRAL PACKAGE
----------------------

Number of atoms                             ...     40
Number of basis functions                   ...   1902
Number of shells                            ...    582
Maximum angular momentum                    ...      4
Integral batch strategy                     ... SHARK/LIBINT Hybrid
RI-J (if used) integral strategy            ... SPLIT-RIJ (Revised 2003 algorithm where possible)
Printlevel                                  ...      1
Contraction scheme used                     ... SEGMENTED contraction
Prescreening option                         ... SCHWARTZ
   Thresh                                   ... 1.000e-10
   Tcut                                     ... 1.000e-11
   Tpresel                                  ... 1.000e-11 
Coulomb Range Separation                    ... NOT USED
Exchange Range Separation                   ... NOT USED
Multipole approximations                    ... NOT USED
Finite Nucleus Model                        ... NOT USED
CABS basis                                  ... NOT available
Auxiliary Coulomb fitting basis             ... NOT available
Auxiliary J/K fitting basis                 ... AVAILABLE
   # of basis functions in Aux-JK           ...   4450
   # of shells in Aux-JK                    ...   1082
   Maximum angular momentum in Aux-JK       ...      5
Auxiliary Correlation fitting basis         ... AVAILABLE
   # of basis functions in Aux-C            ...   4450
   # of shells in Aux-C                     ...   1082
   Maximum angular momentum in Aux-C        ...      5
Auxiliary 'external' fitting basis          ... NOT available

Checking pre-screening integrals            ... done (  0.0 sec) Dimension = 582
Check shell pair data                       ... done (  0.0 sec)
Shell pair information
Shell pair cut-off parameter TPreSel        ...   1.0e-11
Total number of shell pairs                 ...    169653
Shell pairs after pre-screening             ...     98250
Total number of primitive shell pairs       ...    439614
Primitive shell pairs kept                  ...    174577
          la=0 lb=0:  14816 shell pairs
          la=1 lb=0:  22121 shell pairs
          la=1 lb=1:   7712 shell pairs
          la=2 lb=0:  13366 shell pairs
          la=2 lb=1:   9995 shell pairs
          la=2 lb=2:   3210 shell pairs
          la=3 lb=0:   8041 shell pairs
          la=3 lb=1:   6009 shell pairs
          la=3 lb=2:   3632 shell pairs
          la=3 lb=3:   1135 shell pairs
          la=4 lb=0:   3220 shell pairs
          la=4 lb=1:   2424 shell pairs
          la=4 lb=2:   1491 shell pairs
          la=4 lb=3:    882 shell pairs
          la=4 lb=4:    196 shell pairs

Calculating one electron integrals          ... done (  1.2 sec)
Calculating RI/JK V-Matrix + Cholesky decomp... done (  0.9 sec)
Calculating RI/C V-Matrix + Cholesky decomp.... done (  0.8 sec)
Calculating Nuclear repulsion               ... done (  0.0 sec) ENN=   2028.404973786298 Eh

Diagonalization of the overlap matrix:
Smallest eigenvalue                        ... 8.822e-07
Time for diagonalization                   ...    0.693 sec
Threshold for overlap eigenvalues          ... 1.000e-07
Number of eigenvalues below threshold      ... 0

IMPORTANT:
Smallest eigenvalue of S below the DiffSThresh (1.000e-06) while
Thresh>1e-12 and/or TCut>1e-13! In order to avoid SCF convergence issues,
Thresh will be set to at least 1e-12 and TCut to at least 1e-13.
This can be turned off by adding %SCF DiffSThresh -1 END to the input.

Time for construction of square roots      ...    0.388 sec
Total time needed                          ...    1.124 sec

-------------------
DFT GRID GENERATION
-------------------

General Integration Accuracy     IntAcc      ... 4.959
Radial Grid Type                 RadialGrid  ... OptM3 with GC (2021)
Angular Grid (max. ang.)         AngularGrid ... 6 (Lebedev-590)
Angular grid pruning method      GridPruning ... 4 (adaptive)
Weight generation scheme         WeightScheme... mBecke (2022)
Basis function cutoff            BFCut       ... 1.0000e-10
Integration weight cutoff        WCut        ... 1.0000e-14
Partially contracted basis set               ... off
Rotationally invariant grid construction     ... off
Angular grids for H and He will be reduced by one unit
Diffuse basis detected: some atoms will have their outermost
                        angular grid increased by 1.

Total number of grid points                  ...   496533
Total number of batches                      ...     7780
Average number of points per batch           ...       63
Average number of grid points per atom       ...    12413
Initializing property integral containers    ... done (  0.0 sec)

SHARK setup successfully completed in  10.5 seconds

Maximum memory used throughout the entire STARTUP-calculation: 208.3 MB


           ************************************************************
           *        Program running with 104 parallel MPI-processes   *
           *              working on a common directory               *
           ************************************************************
-------------------------------------------------------------------------------
                                 ORCA GUESS
                   Start orbitals & Density for SCF / CASSCF
-------------------------------------------------------------------------------

------------
SCF SETTINGS
------------
Hamiltonian:
 Density Functional     Method          .... DFT(GTOs)
 Exchange Functional    Exchange        .... PBE
   PBE kappa parameter   XKappa         ....  0.804000
   PBE mue parameter    XMuePBE         ....  0.219520
 Correlation Functional Correlation     .... P86
 LDA part of GGA corr.  LDAOpt          .... VWN-5
 Gradients option       PostSCFGGA      .... off
 Hybrid DFT is turned on
   Fraction HF Exchange ScalHFX         ....  0.690000
   Scaling of DF-GGA-X  ScalDFX         ....  0.310000
   Scaling of DF-GGA-C  ScalDFC         ....  0.403800
   Scaling of DF-LDA-C  ScalLDAC        ....  0.403800
   Perturbative correction              ....  1.000000
 RI-approximation to the Coulomb term is turned on
   Number of AuxJK basis functions      .... 4450
   RI-JK (J+K treated both via RI)      .... on


General Settings:
 Integral files         IntName         .... compas3D_hc_c26h14_0pent_2_qz_riri
 Hartree-Fock type      HFTyp           .... RHF
 Total Charge           Charge          ....    0
 Multiplicity           Mult            ....    1
 Number of Electrons    NEL             ....  170
 Basis Dimension        Dim             .... 1902
 Nuclear Repulsion      ENuc            ....   2028.4049737863 Eh

Convergence Acceleration:
 AO-DIIS                CNVDIIS         .... on
   Start iteration      DIISMaxIt       ....    12
   Startup error        DIISStart       ....  0.200000
   # of expansion vecs  DIISMaxEq       ....     5
   Bias factor          DIISBfac        ....   1.050
   Max. coefficient     DIISMaxC        ....  10.000
 MO-DIIS                CNVKDIIS        .... off
 Trust-Rad. Augm. Hess. CNVTRAH         .... auto
   Auto Start mean grad. ratio tolernc. ....  1.125000
   Auto Start start iteration           ....    50
   Auto Start num. interpolation iter.  ....    10
   Max. Number of Micro iterations      ....    24
   Max. Number of Macro iterations      .... Maxiter - #DIIS iter
   Number of Davidson start vectors     ....     2
   Converg. threshold    (grad. norm)   ....   5.000e-05
   Grad. Scal. Fac. for Micro threshold ....   0.100
   Minimum threshold for Micro iter.    ....   1.000e-02
   NR start threshold (gradient norm)   ....   1.000e-04
   Initial trust radius                 ....   0.400
   Minimum AH scaling param. (alpha)    ....   1.000
   Maximum AH scaling param. (alpha)    .... 1000.000
   Quad. conv. algorithm                .... NR
   White noise on init. David. guess    .... on
   Maximum white noise                  ....   0.010
   Pseudo random numbers                .... off
   Inactive MOs                         .... canonical
   Orbital update algorithm             .... Taylor
   Preconditioner                       .... Diag
   Full preconditioner red. dimension   ....   250
 SOSCF                  CNVSOSCF        .... on
   Start iteration      SOSCFMaxIt      ....   150
   Startup grad/error   SOSCFStart      ....  0.003300
   Hessian update       SOSCFHessUp     .... L-BFGS
 Level Shifting         CNVShift        .... on
   Level shift para.    LevelShift      ....    0.2500
   Turn off err/grad.   ShiftErr        ....    0.0010
 Zerner damping         CNVZerner       .... off
 Static damping         CNVDamp         .... on
   Fraction old density DampFac         ....    0.7000
   Max. Damping (<1)    DampMax         ....    0.9800
   Min. Damping (>=0)   DampMin         ....    0.0000
   Turn off err/grad.   DampErr         ....    0.1000

SCF Procedure:
 Maximum # iterations   MaxIter         ....   125
 SCF integral mode      SCFMode         .... Direct
   Integral package                     .... SHARK and LIBINT hybrid scheme
 Reset frequency        DirectResetFreq ....    20
 Integral Threshold     Thresh          ....  1.000e-12 Eh
 Primitive CutOff       TCut            ....  1.000e-13 Eh

Convergence Tolerance:
 Convergence Check Mode ConvCheckMode   .... Total+1el-Energy
 Convergence forced     ConvForced      .... 0
 Energy Change          TolE            ....  1.000e-06 Eh
 1-El. energy change                    ....  1.000e-03 Eh
 Orbital Gradient       TolG            ....  5.000e-05
 Orbital Rotation angle TolX            ....  5.000e-05
 DIIS Error             TolErr          ....  1.000e-06

------------------------------
INITIAL GUESS: MODEL POTENTIAL
------------------------------
Loading Hartree-Fock densities                     ... done
Calculating cut-offs                               ... done
Initializing the effective Hamiltonian             ... done
Setting up the integral package (SHARK)            ... done
Starting the Coulomb interaction                   ... done (   0.4 sec)
Making the grid                                    ... done (   0.3 sec)
Mapping shells                                     ... done
Starting the XC term evaluation                    ... done (   0.2 sec)
  promolecular density results
     # of electrons  =    170.018060976
     EX              =   -137.217772105
     EC              =      0.221266646
     EX+EC           =   -136.996505459
Transforming the Hamiltonian                       ... done (   0.3 sec)
Diagonalizing the Hamiltonian                      ... done (   0.4 sec)
Back transforming the eigenvectors                 ... done (   0.2 sec)
Now organizing SCF variables                       ... done
                      ------------------
                      INITIAL GUESS DONE (   2.3 sec)
                      ------------------
             **** ENERGY FILE WAS UPDATED (compas3D_hc_c26h14_0pent_2_qz_riri.en.tmp) ****
Finished Guess after  19.0 sec
Maximum memory used throughout the entire GUESS-calculation: 216.7 MB


           ************************************************************
           *        Program running with 104 parallel MPI-processes   *
           *              working on a common directory               *
           ************************************************************

-------------------------------------------------------------------------------------------
                                      ORCA LEAN-SCF
                              memory conserving SCF solver
-------------------------------------------------------------------------------------------

----------------------------------------D-I-I-S--------------------------------------------
Iteration    Energy (Eh)           Delta-E    RMSDP     MaxDP     DIISErr   Damp  Time(sec)
-------------------------------------------------------------------------------------------
    1    -994.9938110491382304     0.00e+00  2.66e-04  2.35e-02  1.49e-01  0.700  16.4
    2    -994.8146527292585688     1.79e-01  2.32e-04  1.90e-02  1.32e-01  0.700  17.4
                               ***Turning on AO-DIIS***
    3    -994.9252118848069131    -1.11e-01  1.88e-04  1.66e-02  7.71e-02  0.700  16.0
    4    -995.1442376481643350    -2.19e-01  4.18e-04  4.57e-02  4.09e-02  0.000  16.3
    5    -995.4968080449527861    -3.53e-01  9.56e-05  9.26e-03  3.57e-02  0.000  16.3
    6    -995.5124770394656935    -1.57e-02  5.90e-05  5.54e-03  1.60e-02  0.000  17.7
    7    -995.5162638815038463    -3.79e-03  2.43e-05  2.46e-03  5.57e-03  0.000  17.9
                              *** Initializing SOSCF ***
---------------------------------------S-O-S-C-F--------------------------------------
Iteration    Energy (Eh)           Delta-E    RMSDP     MaxDP     MaxGrad    Time(sec)
--------------------------------------------------------------------------------------
    8    -995.5166686538966587    -4.05e-04  8.50e-06  8.31e-04  1.12e-03    17.5
    9    -995.5167014007145099    -3.27e-05  6.61e-06  5.58e-04  2.68e-04    16.9
   10    -995.5167074185985712    -6.02e-06  4.77e-06  3.56e-04  1.31e-04    16.6
   11    -995.5167086405688224    -1.22e-06  2.17e-06  1.38e-04  8.58e-05    14.8
   12    -995.5167092923545624    -6.52e-07  6.28e-07  5.99e-05  1.29e-05    15.9
                 **** Energy Check signals convergence ****

               *****************************************************
               *                     SUCCESS                       *
               *           SCF CONVERGED AFTER  12 CYCLES          *
               *****************************************************

             **** ENERGY FILE WAS UPDATED (compas3D_hc_c26h14_0pent_2_qz_riri.en.tmp) ****

----------------
TOTAL SCF ENERGY
----------------

Total Energy       :       -995.51670929235456 Eh          -27089.38686 eV

Components:
Nuclear Repulsion  :       2028.40497378629766 Eh           55195.70543 eV
Electronic Energy  :      -3023.92168307865222 Eh          -82285.09229 eV
One Electron Energy:      -5378.27054550485173 Eh         -146350.18184 eV
Two Electron Energy:       2354.34886242619950 Eh           64065.08955 eV

Virial components:
Potential Energy   :      -1988.06469615145852 Eh          -54097.99067 eV
Kinetic Energy     :        992.54798685910396 Eh           27008.60381 eV
Virial Ratio       :          2.00299101149018

DFT components:
N(Alpha)           :       85.000031831255 electrons
N(Beta)            :       85.000031831255 electrons
N(Total)           :      170.000063662509 electrons
E(X)               :      -43.229031684716 Eh       
E(C)               :       -2.535435580025 Eh       
E(XC)              :      -45.764467264741 Eh       

---------------
SCF CONVERGENCE
---------------

  Last Energy change         ...    6.5179e-07  Tolerance :   1.0000e-06
  Last MAX-Density change    ...    5.9904e-05  Tolerance :   1.0000e-05
  Last RMS-Density change    ...    6.2765e-07  Tolerance :   1.0000e-06
  Last DIIS Error            ...    1.1196e-03  Tolerance :   1.0000e-06
  Last Orbital Gradient      ...    1.2907e-05  Tolerance :   5.0000e-05
  Last Orbital Rotation      ...    4.2499e-05  Tolerance :   5.0000e-05


----------------
ORBITAL ENERGIES
----------------

  NO   OCC          E(Eh)            E(eV) 
   0   2.0000     -10.840647      -294.9890 
   1   2.0000     -10.838248      -294.9237 
   2   2.0000     -10.837911      -294.9146 
   3   2.0000     -10.837337      -294.8989 
   4   2.0000     -10.837116      -294.8929 
   5   2.0000     -10.836638      -294.8799 
   6   2.0000     -10.836351      -294.8721 
   7   2.0000     -10.836171      -294.8672 
   8   2.0000     -10.836134      -294.8662 
   9   2.0000     -10.835441      -294.8473 
  10   2.0000     -10.835152      -294.8395 
  11   2.0000     -10.833930      -294.8062 
  12   2.0000     -10.829774      -294.6931 
  13   2.0000     -10.829526      -294.6864 
  14   2.0000     -10.828506      -294.6586 
  15   2.0000     -10.828190      -294.6500 
  16   2.0000     -10.827941      -294.6432 
  17   2.0000     -10.827666      -294.6358 
  18   2.0000     -10.827619      -294.6345 
  19   2.0000     -10.827047      -294.6189 
  20   2.0000     -10.826730      -294.6103 
  21   2.0000     -10.826634      -294.6077 
  22   2.0000     -10.826534      -294.6050 
  23   2.0000     -10.826085      -294.5928 
  24   2.0000     -10.825921      -294.5883 
  25   2.0000     -10.825224      -294.5693 
  26   2.0000      -1.099006       -29.9055 
  27   2.0000      -1.071960       -29.1695 
  28   2.0000      -1.044683       -28.4273 
  29   2.0000      -1.031856       -28.0782 
  30   2.0000      -1.003695       -27.3119 
  31   2.0000      -0.987755       -26.8782 
  32   2.0000      -0.958460       -26.0810 
  33   2.0000      -0.940453       -25.5910 
  34   2.0000      -0.934213       -25.4212 
  35   2.0000      -0.916710       -24.9449 
  36   2.0000      -0.899553       -24.4781 
  37   2.0000      -0.885713       -24.1015 
  38   2.0000      -0.863783       -23.5047 
  39   2.0000      -0.793023       -21.5793 
  40   2.0000      -0.789350       -21.4793 
  41   2.0000      -0.777561       -21.1585 
  42   2.0000      -0.767056       -20.8727 
  43   2.0000      -0.752308       -20.4713 
  44   2.0000      -0.737887       -20.0789 
  45   2.0000      -0.708183       -19.2706 
  46   2.0000      -0.678805       -18.4712 
  47   2.0000      -0.659977       -17.9589 
  48   2.0000      -0.650290       -17.6953 
  49   2.0000      -0.638537       -17.3755 
  50   2.0000      -0.630444       -17.1553 
  51   2.0000      -0.616372       -16.7723 
  52   2.0000      -0.590913       -16.0796 
  53   2.0000      -0.581336       -15.8190 
  54   2.0000      -0.575550       -15.6615 
  55   2.0000      -0.571574       -15.5533 
  56   2.0000      -0.554986       -15.1019 
  57   2.0000      -0.545420       -14.8416 
  58   2.0000      -0.533057       -14.5052 
  59   2.0000      -0.530826       -14.4445 
  60   2.0000      -0.524627       -14.2758 
  61   2.0000      -0.524436       -14.2706 
  62   2.0000      -0.515523       -14.0281 
  63   2.0000      -0.504008       -13.7148 
  64   2.0000      -0.495757       -13.4902 
  65   2.0000      -0.494963       -13.4686 
  66   2.0000      -0.491544       -13.3756 
  67   2.0000      -0.478517       -13.0211 
  68   2.0000      -0.477479       -12.9929 
  69   2.0000      -0.461710       -12.5638 
  70   2.0000      -0.457648       -12.4532 
  71   2.0000      -0.444313       -12.0904 
  72   2.0000      -0.440036       -11.9740 
  73   2.0000      -0.432083       -11.7576 
  74   2.0000      -0.418471       -11.3872 
  75   2.0000      -0.407274       -11.0825 
  76   2.0000      -0.402849       -10.9621 
  77   2.0000      -0.389178       -10.5901 
  78   2.0000      -0.354861        -9.6563 
  79   2.0000      -0.338557        -9.2126 
  80   2.0000      -0.324851        -8.8396 
  81   2.0000      -0.305231        -8.3057 
  82   2.0000      -0.286016        -7.7829 
  83   2.0000      -0.264781        -7.2050 
  84   2.0000      -0.220916        -6.0114 
  85   0.0000      -0.019005        -0.5172 
  86   0.0000       0.015568         0.4236 
  87   0.0000       0.038730         1.0539 
  88   0.0000       0.055234         1.5030 
  89   0.0000       0.068660         1.8683 
  90   0.0000       0.073860         2.0098 
  91   0.0000       0.078276         2.1300 
  92   0.0000       0.078939         2.1481 
  93   0.0000       0.080423         2.1884 
  94   0.0000       0.089176         2.4266 
  95   0.0000       0.092142         2.5073 
*Only the first 10 virtual orbitals were printed.
-------
TIMINGS
-------

Total SCF time: 0 days 0 hours 3 min 37 sec 

Total time                  ....     217.904 sec
Sum of individual times     ....     217.620 sec  ( 99.9%)

SCF preparation             ....      16.166 sec  (  7.4%)
Fock matrix formation       ....     173.679 sec  ( 79.7%)
  Startup                   ....       1.925 sec  (  1.1% of F)
  RI-JK                     ....     154.151 sec  ( 88.8% of F)
  XC integration            ....      13.309 sec  (  7.7% of F)
    XC Preparation          ....       0.000 sec  (  0.0% of XC)
    Basis function eval.    ....       0.939 sec  (  7.1% of XC)
    Density eval.           ....       2.316 sec  ( 17.4% of XC)
    XC-Functional eval.     ....       0.031 sec  (  0.2% of XC)
    XC-Potential eval.      ....       3.543 sec  ( 26.6% of XC)
Diagonalization             ....       0.000 sec  (  0.0%)
Density matrix formation    ....       3.937 sec  (  1.8%)
Total Energy calculation    ....       1.287 sec  (  0.6%)
Population analysis         ....       0.000 sec  (  0.0%)
Orbital Transformation      ....       2.731 sec  (  1.3%)
Orbital Orthonormalization  ....       0.000 sec  (  0.0%)
DIIS solution               ....      15.140 sec  (  6.9%)
SOSCF solution              ....       4.601 sec  (  2.1%)
Finished LeanSCF after 218.2 sec

Maximum memory used throughout the entire LEANSCF-calculation: 664.6 MB


           ************************************************************
           *        Program running with 104 parallel MPI-processes   *
           *              working on a common directory               *
           ************************************************************

------------------------------------------------------------------------------
                                ORCA  MP2 
------------------------------------------------------------------------------


-------------
RI-MP2 ENERGY
-------------
Dimension of the orbital basis            ... 1902
Dimension of the AuxC basis               ... 4450
Memory devoted to MP2                     ... 4096 MB   
Data format for matrix containers         ... DOUBLE
Compression type for matrix containers    ... UNCOMPRESSED
Scaling for aa/bb pairs                   ...   5.710e-02
Scaling for ab pairs                      ...   5.979e-01
Overall scaling of the MP2 energy         ...   1.000e+00

-----------------------
SHARK RI TRANSFORMATION
-----------------------

Number of basis functions                ...   1902
Number of aux functions                  ...   4450
Number of operators                      ...      1
Generation of IJK                        ... NO
Generation of IAK                        ... YES
Generation of ABK                        ... NO
Orbital Range Operator  0:    0-  84 to   85-1901

Aux basis identifier                     ...   AUXC
Contraction scheme used                  ... SEGMENTED
Do orthogonalization                     ... YES
All operator combinations                ... NO
Transpose (ia|K)                         ... NO
Integral generator used                  ... LIBINT
Starting integral generation + trafo... 
Half trafo (segmented) done. Total time =  6.0 sec. integrals=  1.5 sec trafo=  3.5 sec
Integral generation and half transformation done (  6.0 sec)

Reading or making V^(-1/2)          ... done (  0.3 sec)
Sorting IAK integrals               ... done (  9.0 sec)

SHARK RI integral transformation done. Total time = 15.4 sec.

Opening buffers                              ... done

Starting loop over batches of integrals:

Operator 0  - window                       ... (  0- 84)x( 85-1901)
Operator 0  - Memory available             ...  4096 MB
Operator 0  - Memory needed per MO         ...  61.7 MB
Operator 0  - Number of orbitals per batch ... 1
Operator 0  - Number of batches            ... 1

OPERATOR  0   PASS   0:  MOs     0 ...    0 +    1 ...    1 +    2 ...    2 +    3 ...    3
                            +    4 ...    4 +    5 ...    5 +    6 ...    6 +    7 ...    7
                            +    8 ...    8 +    9 ...    9 +   10 ...   10 +   11 ...   11
                            +   12 ...   12 +   13 ...   13 +   14 ...   14 +   15 ...   15
                            +   16 ...   16 +   17 ...   17 +   18 ...   18 +   19 ...   19
                            +   20 ...   20 +   21 ...   21 +   22 ...   22 +   23 ...   23
                            +   24 ...   24 +   25 ...   25 +   26 ...   26 +   27 ...   27
                            +   28 ...   28 +   29 ...   29 +   30 ...   30 +   31 ...   31
                            +   32 ...   32 +   33 ...   33 +   34 ...   34 +   35 ...   35
                            +   36 ...   36 +   37 ...   37 +   38 ...   38 +   39 ...   39
                            +   40 ...   40 +   41 ...   41 +   42 ...   42 +   43 ...   43
                            +   44 ...   44 +   45 ...   45 +   46 ...   46 +   47 ...   47
                            +   48 ...   48 +   49 ...   49 +   50 ...   50 +   51 ...   51
                            +   52 ...   52 +   53 ...   53 +   54 ...   54 +   55 ...   55
                            +   56 ...   56 +   57 ...   57 +   58 ...   58 +   59 ...   59
                            +   60 ...   60 +   61 ...   61 +   62 ...   62 +   63 ...   63
                            +   64 ...   64 +   65 ...   65 +   66 ...   66 +   67 ...   67
                            +   68 ...   68 +   69 ...   69 +   70 ...   70 +   71 ...   71
                            +   72 ...   72 +   73 ...   73 +   74 ...   74 +   75 ...   75
                            +   76 ...   76 +   77 ...   77 +   78 ...   78 +   79 ...   79
                            +   80 ...   80 +   81 ...   81 +   82 ...   82 +   83 ...   83
                            +   84 ...   84
  Reading integrals       ... ok
Time spent in pair loops =    48.157 sec

-----------------------------------------------
 RI-MP2 CORRELATION ENERGY:     -2.555760385 Eh
-----------------------------------------------


-------
TIMINGS
-------

Total time                :   66.764 sec
Integral trafo            :   15.738 sec ( 23.6%)
I/O of integrals          :    0.062 sec (  0.1%)
K(i,j) operators          :    0.553 sec (  0.8%)
T(i,j) pair energies      :    0.110 sec (  0.2%)
V**(-1/2)                 :    2.868 sec (  4.3%)


---------------------------------------
MP2 TOTAL ENERGY:     -998.072469678 Eh
---------------------------------------

Maximum memory used throughout the entire MP2-calculation: 449.3 MB


-------------------------------------------------------------------------------
                          DFT DISPERSION CORRECTION                            
                                                                               
                                DFTD4 V3.4.0                                   
-------------------------------------------------------------------------------
The REV-DSD-PBEP86-2021 functional is recognized
A user input s6-coefficient scaling factor has been recognized
A user input a1-coefficient scaling factor has been recognized
A user input s8-coefficient scaling factor has been recognized
A user input a2-coefficient scaling factor has been recognized
A user input s9-coefficient scaling factor has been recognized
Active option DFTDOPT                   ...         5   

-------------------------   ----------------
Dispersion correction           -0.041644991
-------------------------   ----------------


-------------------------   --------------------
FINAL SINGLE POINT ENERGY      -998.114114668978
-------------------------   --------------------



           ************************************************************
           *        Program running with 104 parallel MPI-processes   *
           *              working on a common directory               *
           ************************************************************

------------------------------------------------------------------------------
                              ORCA PROPERTY CALCULATIONS
------------------------------------------------------------------------------

GBWName                                 ... compas3D_hc_c26h14_0pent_2_qz_riri.gbw
Number of atoms                         ...     40
Number of basis functions               ...   1902
Max core memory                         ...   1024 MB

Electric properties:
Dipole moment                           ... YES
Quadrupole moment                       ...  NO
Static polarizability (Dipole/Dipole)   ...  NO
Static polarizability (Dipole/Quad.)    ...  NO
Static polarizability (Quad./Quad.)     ...  NO
Static polarizability (Velocity)        ...  NO

Atomic electric properties:
Dipole moment                           ...  NO
Quadrupole moment                       ...  NO
Static polarizability                   ...  NO

Choice of electric origin               ... Center of mass
Position of electric origin             ...    -0.083685     0.080663    -0.000437

General magnetic properties:
Magnetizability                         ...  NO

EPR properties:
g-Tensor (aka g-matrix)                 ...  NO
Zero-Field splitting spin-orbit         ...  NO
Zero-field splitting spin-spin          ...  NO
Hyperfine couplings                     ...  NO (   0 nuclei)
Quadrupole couplings                    ...  NO (   0 nuclei)
Contact density                         ...  NO (   0 nuclei)

NMR properties:
Chemical shifts                         ...  NO (   0 nuclei)
Spin-rotation constants                 ...  NO (   0 nuclei)
Spin-spin couplings                     ...  NO (   0 nuclei,    0 pairs)

Choice of magnetic origin               ... GIAO
Position of magnetic origin             ...     0.000000     0.000000     0.000000

Properties with geometric perturbations:
SCF Hessian                             ...  NO
IR spectrum                             ...  NO
VCD spectrum                            ...  NO
X-ray spectroscopy properties:
SCF XES/XAS/RIXS spectra                ...  NO


-------------
DIPOLE MOMENT
-------------

Method             : SCF
Type of density    : Electron Density
Multiplicity       :   1
Irrep              :   0
Energy             :  -995.5167092923545624 Eh
Relativity type    : 
Basis              : AO
                                X                 Y                 Z
Electronic contribution:     -1.799491471       1.735857723      -0.008427345
Nuclear contribution   :      1.813078034      -1.745512431       0.008449910
                        -----------------------------------------
Total Dipole Moment    :      0.013586563      -0.009654708       0.000022566
                        -----------------------------------------
Magnitude (a.u.)       :      0.016667591
Magnitude (Debye)      :      0.042365649



--------------------
Rotational spectrum 
--------------------
 
Rotational constants in cm-1:             0.016705             0.004838             0.003752 
Rotational constants in MHz :           500.792066           145.044151           112.469630 

Dipole components along the rotational axes: 
x,y,z [a.u.] :    -0.011882     0.011689    -0.000039 
x,y,z [Debye]:    -0.030202     0.029710    -0.000100 

 

Dipole moment calculation done in   0.2 sec 

Maximum memory used throughout the entire PROP-calculation: 242.8 MB

--------------------------------
SUGGESTED CITATIONS FOR THIS RUN
--------------------------------

Below you find a list of papers that are relevant to this ORCA run
We neither can nor want to force you to cite these papers, but we appreciate if you do
You receive ORCA, which is the product of decades of hard work by many enthusiastic individuals, for free
The only thing we kindly ask in return is that you cite our papers,
We deeply appreciate it, if you show your appreciation for ORCA by not just citing the generic ORCA reference.

Please note that relegating all ORCA citations to the supporting information does *not* help us.
SI sections are not indexed - citations you put there will not count into any citation statistics
But we need these citations in order to attract the funding resources that allow us to do what we are doing

Therefore, if you are a happy ORCA user, please consider citing a few of the papers listed below in the main body of your paper

In addition to the list printed below, the program has created the file compas3D_hc_c26h14_0pent_2_qz_riri.bibtex that contains the list in bibtex format
You can import this file easily into all common literature databanks and citation aid programs


List of essential papers. We consider these as the minimum necessary citations

  1. Neese,F.
     Software update: the ORCA program system, version 5.0
     WIRES Comput. Molec. Sci., 2022 12(1)e1606
     doi.org/10.1002/wcms.1606

List of papers to cite with high priority. The work reported in these papers was absolutely
necessary for this run to complete.
Our perspective: the developers of density functionals and basis sets usually get cited in chemistry papers
Good! But without the algorithms to do something with them, the functionals or basis sets would not do anything.
Hence, in our opinion, the algorithm design and method developments papers are equally worthy of getting cited

  1. Neese,F.
     An improvement of the resolution of the identity approximation for the formation of the Coulomb matrix
     J. Comp. Chem., 2003 24(14)1740-1747
     doi.org/10.1002/jcc.10318
  2. Kossmann,S.; Neese,F.
     Comparison of two efficient approximate Hartee-Fock approaches
     Chem. Phys. Lett., 2009 481 240-243
     doi.org/10.1016/j.cplett.2009.09.073
  3. Neese,F.
     The SHARK Integral Generation and Digestion System
     J. Comp. Chem., 2022  1-16
     doi.org/10.1002/jcc.26942
  4. Caldeweyher,E.; Bannwarth,C.; Grimme,S.
     Extension of the D3 dispersion coefficient model
     J. Chem. Phys., 2017 147 034112
     doi.org/10.1063/1.4993215
  5. Caldeweyher,E.; Ehlert,S.; Hansen,A.; Neugebauer,H.; Spicher,S.; Bannwarth,C.; Grimme,S.
     A generally applicable atomic-charge dependent London dispersion correction
     J. Chem. Phys., 2019 150 154122
     doi.org/10.1063/1.5090222
  6. Caldeweyher,E.; Mewes,J.; Ehlert,S.; Grimme,S.
     Extension and evaluation of the D4 London-dispersion model for periodic systems
     Phys. Chem. Chem. Phys., 2020 22(16)8499-8512
     doi.org/10.1039/D0CP00502A
  7. Wittmann,L.; Gordiy,I.; Friede,M.; Helmich-Paris,B.; Grimme,S.; Hansen,A.; Bursch,M.
     Extension of the D3 and D4 London Dispersion Corrections to the full Actinides Series
     Phys. Chem. Chem. Phys., 2024 26(32)21379-21394
     doi.org/https://doi.org/10.1039/D4CP01514B 

List of suggested additional citations. These are papers that are important in the 'surrounding' of 
of this run, or papers that preceded the highly important papers. If you like your results we are grateful for a citation.

  1. Neese,F.
     The ORCA program system
     WIRES Comput. Molec. Sci., 2012 2(1)73-78
     doi.org/10.1002/wcms.81
  2. Neese,F.
     Software update: the ORCA program system, version 4.0
     WIRES Comput. Molec. Sci., 2018 8(1)1-6
     doi.org/10.1002/wcms.1327
  3. Neese,F.; Wennmohs,F.; Becker,U.; Riplinger,C.
     The ORCA quantum chemistry program package
     J. Chem. Phys., 2020 152 Art. No. L224108
     doi.org/10.1063/5.0004608

List of optional additional citations

  1. Neese,F.
     Approximate second-order SCF convergence for spin unrestricted wavefunctions
     Chem. Phys. Lett., 2000 325(1-3)93-98
     doi.org/10.1016/s0009-2614(00)00662-x

Timings for individual modules:

Sum of individual times          ...      368.542 sec (=   6.142 min)
Startup calculation              ...       26.688 sec (=   0.445 min)   7.2 %
SCF iterations                   ...      239.880 sec (=   3.998 min)  65.1 %
Property calculations            ...       17.555 sec (=   0.293 min)   4.8 %
MP2 module                       ...       84.420 sec (=   1.407 min)  22.9 %
                             ****ORCA TERMINATED NORMALLY****
TOTAL RUN TIME: 0 days 0 hours 6 minutes 25 seconds 541 msec
