
                                 *****************
                                 * O   R   C   A *
                                 *****************

                                            #,                                       
                                            ###                                      
                                            ####                                     
                                            #####                                    
                                            ######                                   
                                           ########,                                 
                                     ,,################,,,,,                         
                               ,,#################################,,                 
                          ,,##########################################,,             
                       ,#########################################, ''#####,          
                    ,#############################################,,   '####,        
                  ,##################################################,,,,####,       
                ,###########''''           ''''###############################       
              ,#####''   ,,,,##########,,,,          '''####'''          '####       
            ,##' ,,,,###########################,,,                        '##       
           ' ,,###''''                  '''############,,,                           
         ,,##''                                '''############,,,,        ,,,,,,###''
      ,#''                                            '''#######################'''  
     '                                                          ''''####''''         
             ,#######,   #######,   ,#######,      ##                                
            ,#'     '#,  ##    ##  ,#'     '#,    #''#        ,####,   ,####,        
            ##       ##  ##   ,#'  ##            #'  '#       #'       #'  '#        
            ##       ##  #######   ##           ,######,      #####,   #    #        
            '#,     ,#'  ##    ##  '#,     ,#' ,#      #,     #,   #   #,  ,#        
             '#######'   ##     ##  '#######'  #'      '#     '####' # '####'        



                #########################################################
                #                        -***-                          #
                #          Department of theory and spectroscopy        #
                #                                                       #
                #                      Frank Neese                      #
                #                                                       #
                #     Directorship, Architecture, Infrastructure        #
                #                    SHARK, DRIVERS                     #
                #        Core code/Algorithms in most modules           #
                #                                                       #
                #        Max Planck Institute fuer Kohlenforschung      #
                #                Kaiser Wilhelm Platz 1                 #
                #                 D-45470 Muelheim/Ruhr                 #
                #                      Germany                          #
                #                                                       #
                #                  All rights reserved                  #
                #                        -***-                          #
                #########################################################


                         Program Version 6.0.1  -  RELEASE   -


 With contributions from (in alphabetic order):
[Max-Planck-Institut fuer Kohlenforschung]                               
  Daniel Aravena         : Magnetic Suceptibility                        
  Michael Atanasov       : Ab Initio Ligand Field Theory (pilot matlab implementation)
  Alexander A. Auer      : GIAO ZORA, VPT2 properties, NMR spectrum      
  Ute Becker             : All parallelization in ORCA, NUMFREQ, NUMCALC 
  Giovanni Bistoni       : ED, misc. LED, open-shell LED, HFLD           
  Martin Brehm           : Molecular dynamics                            
  Dmytro Bykov           : pre 5.0 version of the SCF Hessian            
  Marcos Casanova-Páez   : Triplet and SCS-CIS(D). UHF-(DLPNO)-IP/EA/STEOM-CCSD. UHF-CVS-IP/STEOM-CCSD   
  Vijay G. Chilkuri      : MRCI spin determinant printing, contributions to CSF-ICE 
  Pauline Colinet        : FMM embedding                                 
  Dipayan Datta          : RHF DLPNO-CCSD density                        
  Achintya Kumar Dutta   : EOM-CC, STEOM-CC                              
  Nicolas Foglia         : Exact transition moments, OPA infrastructure, MCD improvements    
  Dmitry Ganyushin       : Spin-Orbit,Spin-Spin,Magnetic field MRCI      
  Miquel Garcia-Rates    : C-PCM and meta-GGA Hessian, CCSD/C-PCM, Gaussian charge scheme 
  Tiago L. C. Gouveia    : GS-ROHF, GS-ROCIS                             
  Yang Guo               : DLPNO-NEVPT2, F12-NEVPT2, CIM, IAO-localization        
  Andreas Hansen         : Spin unrestricted coupled pair/coupled cluster methods 
  Ingolf Harden          : AUTO-CI MPn and infrastructure                
  Benjamin Helmich-Paris : MC-RPA, TRAH-(SCF,CASSCF), AVAS, COSX integrals, SCF dyn. polar. 
  Lee Huntington         : MR-EOM, pCC                                   
  Robert Izsak           : Overlap fitted RIJCOSX, COSX-SCS-MP3, EOM     
  Riya Kayal             : Wick's Theorem for AUTO-CI, AUTO-CI UHF-CCSDT 
  Emily Kempfer          : AUTO-CI, RHF CISDT and CCSDT                  
  Christian Kollmar      : KDIIS, OOCD, Brueckner-CCSD(T), CCSD density, CASPT2, CASPT2-K, improved NEVPT2 
  Axel Koslowski         : Symmetry handling                             
  Simone Kossmann        : meta-GGA functionals, TD-DFT gradient, OOMP2, (MP2 Hessian; deprecated post 5.0) 
  Lucas Lang             : DCDCAS                                        
  Marvin Lechner         : AUTO-CI (C++ implementation), FIC-MRCC        
  Spencer Leger          : CASSCF response                               
  Dagmar Lenk            : GEPOL surface, SMD, ORCA-2-JSON               
  Dimitrios Liakos       : Extrapolation schemes; Compound Job, initial MDCI parallelization 
  Dimitrios Manganas     : Further ROCIS development; embedding schemes. LFT, Crystal Embedding 
  Dimitrios Pantazis     : SARC Basis sets                               
  Anastasios Papadopoulos: AUTO-CI, single reference methods and gradients 
  Taras Petrenko         : pre 6.0 DFT Hessian and TD-DFT gradient, (ASA, deprecated), ECA, 1-Electron XAS/XES, NRVS 
  Peter Pinski           : DLPNO-MP2, DLPNO-MP2 Gradient                 
  Christoph Reimann      : Effective Core Potentials                     
  Marius Retegan         : Local ZFS, SOC                                
  Christoph Riplinger    : Optimizer, TS searches, QM/MM, DLPNO-CCSD(T), (RO)-DLPNO pert. Triples 
  Michael Roemelt        : Original ROCIS implementation                 
  Masaaki Saitow         : Open-shell DLPNO-CCSD energy and density      
  Barbara Sandhoefer     : DKH picture change effects                    
  Kantharuban Sivalingam : CASSCF convergence/infrastructure, NEVPT2 and variants, FIC-MRCI 
  Bernardo de Souza      : ESD, SOC TD-DFT                               
  Georgi L. Stoychev     : AutoAux, RI-MP2 NMR, DLPNO-MP2 response, X2C  
  Van Anh Tran           : RI-MP2 g-tensors                              
  Willem Van den Heuvel  : Paramagnetic NMR                              
  Zikuan Wang            : NOTCH, Electric field optimization            
  Frank Wennmohs         : Technical directorship and infrastructure     
  Hang Xu                : AUTO-CI-Response properties                   
                                                                         
[FACCTs GmbH]                                                            
  Markus Bursch, Miquel Garcia-Rates, Christoph Riplinger, Bernardo de Souza, Georgi L. Stoychev 
                                                                 
  APM, Basis sets (HGBS, AHGBS, def-TZVP (Ac-Lr), def2-XVPD (La-Lu)), CI-OPT, improved COSX, DLPNO-Multilevel,           
  DOCKER, DRACO, updates on ESD, GOAT, IRC, LR-CPCM, MBIS, meta-GGA TD-DFT gradient, ML-optimized integration grids, 
  MM, NACMEs, nearIR, NEB, NEB-TS, NL-DFT gradient (VV10), 2- and 3-layer-ONIOM, interface openCOSMO-RS, QMMM,   
  Crystal-QMMM, SF, symmetry and pop. for TD-DFT, r2SCAN hybrids, SOLVATOR                                   
                                                                         
[Other institutions]                                                     
  V. Asgeirsson          : NEB                                           
  Christoph Bannwarth    : sTDA-DFT, sTD-DFT, PBEh-3c, B97-3c, D3        
  Sebastian Ehlert       : rSCAN, r2SCAN, r2SCAN-3c, D4, dhf basis sets  
  Marvin Friede          : D4 for Fr, Ra, Ac-Lr                          
  Lars Goerigk           : TD-DFT with DH, B97 family of functionals     
  Stefan Grimme          : VdW corrections, initial TS optimization, DFT functionals, gCP, sTDA/sTD-DF 
  Waldemar Hujo          : DFT-NL                                        
  H. Jonsson             : NEB                                           
  Holger Kruse           : gCP                                           
  Marcel Mueller         : wB97X-3c, vDZP basis set                      
  Hagen Neugebauer       : wr2SCAN                                       
  Tobias Risthaus        : range-separated hybrid DFT                    
  Lukas Wittmann         : regularized MP2, r2SCAN double-hybrids, wr2SCAN        
                                                                         
We gratefully acknowledge several colleagues who have allowed us to      
interface, adapt or use parts of their codes:                            
  Ed Valeev, F. Pavosevic, A. Kumar             : LibInt (2-el integral package), F12 methods 
  Garnet Chan, S. Sharma, J. Yang, R. Olivares  : DMRG                   
  Ulf Ekstrom                                   : XCFun DFT Library      
  Mihaly Kallay                                 : mrcc  (arbitrary order and MRCC methods)
  Frank Weinhold                                : gennbo (NPA and NBO analysis)           
  Simon Mueller                                 : openCOSMO-RS                            
  Christopher J. Cramer and Donald G. Truhlar   : smd solvation model                     
  S Lehtola, MJT Oliveira, MAL Marques          : LibXC Library                           
  Liviu Ungur et al                             : ANISO software                          


 Your calculation uses the libint2 library for the computation of 2-el integrals
 For citations please refer to: http://libint.valeyev.net

 Your ORCA version has been built with support for libXC version: 6.2.2
 For citations please refer to: https://libxc.gitlab.io

 This ORCA versions uses:
   CBLAS   interface :  Fast vector & matrix operations
   LAPACKE interface :  Fast linear algebra routines
   SCALAPACK package :  Parallel linear algebra routines
   Shared memory     :  Shared parallel matrices
   BLAS/LAPACK       :  OpenBLAS 0.3.27  USE64BITINT DYNAMIC_ARCH NO_AFFINITY SapphireRapids SINGLE_THREADED
        Core in use  :  SapphireRapids
   Copyright (c) 2011-2014, The OpenBLAS Project




***************************************
The coordinates will be read from file: /scratch/kx58/rs2200/dhdft/inputs/compas3x-xyzs/hc_c24h14_0pent_8.xyz
***************************************


Your calculation utilizes the atom-pairwise dispersion correction
based on EEQ partial charges (D4)


================================================================================

----- Orbital basis set information -----
Your calculation utilizes the basis: def2-SVP
   F. Weigend and R. Ahlrichs, Phys. Chem. Chem. Phys. 7, 3297 (2005).

----- AuxC basis set information -----
Your calculation utilizes the auxiliary basis: def2-SVP/C
  H-La, Hf-Rn : A. Hellweg, C. Hattig, S. Hofener and W. Klopper, Theor. Chem. Acc. 117, 587 (2007).
        Ce-Lu : J. Chmela and M. E. Harding, Mol. Phys. (2018).

----- AuxJK basis set information -----
Your calculation utilizes the auxiliary basis: def2/JK
   H-Ba, Hf-Rn: F. Weigend, J. Comput. Chem. 29, 167 (2008).

================================================================================
                                        WARNINGS
                       Please study these warnings very carefully!
================================================================================


WARNING: No MP2 level density has been requested!
         To calculate MP2 level properties use
         %mp2 Density relaxed end
         or
         %mp2 Density unrelaxed end
         Otherwise for double-hybrid DFT only the energy is correct!

================================================================================
                                       INPUT FILE
================================================================================
NAME = compas3x_hc_c24h14_0pent_8_dz_rijk.inp
|  1> ! RKS revDSD-PBEP86-D4/2021 defgrid3  RIJK NOPOP NoFrozencore NoUseSym
|  2> 
|  3> %basis
|  4> Basis "def2-SVP"
|  5> AuxJK "def2/JK"
|  6> AuxC "def2-SVP/C"
|  7> end
|  8> 
|  9> %method
| 10> ScalHFX 0.69
| 11> ScalDFX 0.31
| 12> ScalDFC 0.4038
| 13> ScalLDAC 0.4038
| 14> 
| 15> D4S6 0.4612
| 16> D4S8 0.0
| 17> D4A1 0.44
| 18> D4A2 3.60
| 19> end
| 20> 
| 21> %mp2
| 22> PS 0.5979
| 23> PT 0.0571
| 24> end
| 25> 
| 26> %pal
| 27> nprocs 104
| 28> end
| 29> 
| 30> *XYZFILE 0 1 /scratch/kx58/rs2200/dhdft/inputs/compas3x-xyzs/hc_c24h14_0pent_8.xyz
| 31> 
| 32>                          ****END OF INPUT****
================================================================================

                       ****************************
                       * Single Point Calculation *
                       ****************************

---------------------------------
CARTESIAN COORDINATES (ANGSTROEM)
---------------------------------
  C      1.810806    0.171809   -0.001627
  C      0.406486    0.315242    0.000884
  C     -0.177548    1.614470    0.004282
  C      0.659869    2.757807    0.006492
  C      2.064762    2.580865    0.004338
  C      2.613230    1.342011    0.000242
  C      2.403591   -1.132035   -0.004180
  C      1.547991   -2.260918    0.003884
  C      0.152762   -2.081751    0.007523
  C     -0.437570   -0.840035    0.002198
  C     -1.884196   -0.672008   -0.001325
  C     -2.449651    0.619717    0.001848
  C     -1.585621    1.789968    0.006901
  C     -2.092536    3.083799    0.012811
  C     -1.262818    4.197592    0.015149
  C      0.100237    4.041807    0.011706
  C      3.792748   -1.363730   -0.013884
  C      4.304127   -2.634503   -0.013212
  C      3.453185   -3.746005   -0.002153
  C      2.099938   -3.558920    0.006001
  C     -2.745272   -1.776593   -0.010054
  C     -4.113166   -1.632227   -0.013489
  C     -4.668943   -0.360834   -0.008682
  C     -3.844905    0.740388   -0.001653
  H      2.692594    3.460639    0.006650
  H      3.687064    1.249198   -0.000159
  H     -0.442885   -2.980713    0.014001
  H     -3.156491    3.255406    0.015863
  H     -1.700012    5.185533    0.019598
  H      0.756282    4.900222    0.013334
  H      4.482302   -0.534714   -0.023099
  H      5.374022   -2.784193   -0.021315
  H      3.871584   -4.741739   -0.000897
  H      1.427895   -4.405589    0.013407
  H     -2.343893   -2.776739   -0.015383
  H     -4.749426   -2.504960   -0.020339
  H     -5.741598   -0.234766   -0.011215
  H     -4.303945    1.715497    0.000556

----------------------------
CARTESIAN COORDINATES (A.U.)
----------------------------
  NO LB      ZA    FRAG     MASS         X           Y           Z
   0 C     6.0000    0    12.011    3.421928    0.324672   -0.003075
   1 C     6.0000    0    12.011    0.768147    0.595721    0.001670
   2 C     6.0000    0    12.011   -0.335516    3.050907    0.008093
   3 C     6.0000    0    12.011    1.246972    5.211499    0.012267
   4 C     6.0000    0    12.011    3.901834    4.877129    0.008198
   5 C     6.0000    0    12.011    4.938289    2.536034    0.000458
   6 C     6.0000    0    12.011    4.542129   -2.139236   -0.007899
   7 C     6.0000    0    12.011    2.925278   -4.272515    0.007340
   8 C     6.0000    0    12.011    0.288678   -3.933939    0.014216
   9 C     6.0000    0    12.011   -0.826887   -1.587436    0.004154
  10 C     6.0000    0    12.011   -3.560614   -1.269911   -0.002504
  11 C     6.0000    0    12.011   -4.629170    1.171096    0.003492
  12 C     6.0000    0    12.011   -2.996389    3.382549    0.013040
  13 C     6.0000    0    12.011   -3.954321    5.827536    0.024209
  14 C     6.0000    0    12.011   -2.386381    7.932299    0.028628
  15 C     6.0000    0    12.011    0.189420    7.637908    0.022121
  16 C     6.0000    0    12.011    7.167256   -2.577076   -0.026237
  17 C     6.0000    0    12.011    8.133621   -4.978489   -0.024967
  18 C     6.0000    0    12.011    6.525575   -7.078923   -0.004069
  19 C     6.0000    0    12.011    3.968308   -6.725383    0.011340
  20 C     6.0000    0    12.011   -5.187812   -3.357274   -0.018999
  21 C     6.0000    0    12.011   -7.772758   -3.084463   -0.025490
  22 C     6.0000    0    12.011   -8.823024   -0.681877   -0.016407
  23 C     6.0000    0    12.011   -7.265817    1.399131   -0.003124
  24 H     1.0000    0     1.008    5.088265    6.539661    0.012567
  25 H     1.0000    0     1.008    6.967541    2.360641   -0.000300
  26 H     1.0000    0     1.008   -0.836931   -5.632731    0.026458
  27 H     1.0000    0     1.008   -5.964904    6.151825    0.029977
  28 H     1.0000    0     1.008   -3.212557    9.799238    0.037034
  29 H     1.0000    0     1.008    1.429167    9.260078    0.025197
  30 H     1.0000    0     1.008    8.470324   -1.010463   -0.043651
  31 H     1.0000    0     1.008   10.155430   -5.261363   -0.040280
  32 H     1.0000    0     1.008    7.316234   -8.960589   -0.001695
  33 H     1.0000    0     1.008    2.698330   -8.325356    0.025336
  34 H     1.0000    0     1.008   -4.429317   -5.247276   -0.029070
  35 H     1.0000    0     1.008   -8.975115   -4.733688   -0.038436
  36 H     1.0000    0     1.008  -10.850048   -0.443643   -0.021193
  37 H     1.0000    0     1.008   -8.133278    3.241819    0.001051

--------------------------------
INTERNAL COORDINATES (ANGSTROEM)
--------------------------------
 C      0   0   0     0.000000000000     0.00000000     0.00000000
 C      1   0   0     1.411628479054     0.00000000     0.00000000
 C      2   1   0     1.424465100135   120.03696048     0.00000000
 C      3   2   1     1.417211839931   119.57480589   359.93618342
 C      4   3   2     1.415992813774   119.04164306     0.04276974
 C      5   4   3     1.354840813251   121.05854955     0.00000000
 C      1   2   3     1.432274337693   120.28053128   179.95974793
 C      7   1   2     1.416507596319   118.39101029   359.63244733
 C      8   7   1     1.406690122424   119.84195231     0.30861709
 C      9   8   7     1.374910271762   122.74359401     0.06812701
 C     10   9   8     1.456356004376   122.05268342   179.65649259
 C     11  10   9     1.410072807802   120.26623085   179.59479835
 C      3   2   1     1.418970115647   121.30968333   180.00189500
 C     13   3   2     1.389603575135   118.49965088   179.87580504
 C     14  13   3     1.388874070111   121.92093414     0.05016861
 C     15  14  13     1.371933139192   120.16368141     0.00000000
 C      7   1   2     1.408380149956   123.91761223   179.65132331
 C     17   7   1     1.369807456018   121.38864571   179.86863511
 C     18  17   7     1.399878463896   120.64171295   359.97016487
 C     19  18  17     1.366142332347   119.56719565     0.09906979
 C     11  10   9     1.400584099428   121.31306068   359.49132244
 C     21  11  10     1.375495672717   121.91373052   180.00113983
 C     22  21  11     1.387570576596   119.63580975     0.00000000
 C     23  22  21     1.375419582602   119.58118535     0.05349295
 H      5   4   3     1.080824082143   118.33403195   180.03568713
 H      6   5   4     1.077837370490   118.81989352   180.06836583
 H      9   8   7     1.078410686832   116.21107959   180.01963202
 H     14  13   3     1.077709600980   120.55772092   180.05659863
 H     15  14  13     1.080364012258   119.44511430   179.98943780
 H     16  15  14     1.080405036964   120.86843779   179.99137933
 H     17   7   1     1.078349291213   120.28557098   359.80595158
 H     18  17   7     1.080346467214   119.88405070   179.96781421
 H     19  18  17     1.080067804844   119.77097666   180.05334938
 H     20  19  18     1.080992991728   120.57092862   179.92751341
 H     21  11  10     1.077694326293   120.19632362   359.93496455
 H     22  21  11     1.080062793211   120.06934625   179.99445693
 H     23  22  21     1.080040969623   120.31440683   180.00580414
 H     24  23  22     1.077756866889   117.98381599   179.91541045

---------------------------
INTERNAL COORDINATES (A.U.)
---------------------------
 C      0   0   0     0.000000000000     0.00000000     0.00000000
 C      1   0   0     2.667591228255     0.00000000     0.00000000
 C      2   1   0     2.691848926584   120.03696048     0.00000000
 C      3   2   1     2.678142251221   119.57480589   359.93618342
 C      4   3   2     2.675838625634   119.04164306     0.04276974
 C      5   4   3     2.560278092103   121.05854955     0.00000000
 C      1   2   3     2.706606246883   120.28053128   179.95974793
 C      7   1   2     2.676811423662   118.39101029   359.63244733
 C      8   7   1     2.658259086673   119.84195231     0.30861709
 C      9   8   7     2.598203872346   122.74359401     0.06812701
 C     10   9   8     2.752114001762   122.05268342   179.65649259
 C     11  10   9     2.664651435635   120.26623085   179.59479835
 C      3   2   1     2.681464910791   121.30968333   180.00189500
 C     13   3   2     2.625970191723   118.49965088   179.87580504
 C     14  13   3     2.624591627015   121.92093414     0.05016861
 C     15  14  13     2.592577907124   120.16368141     0.00000000
 C      7   1   2     2.661452775867   123.91761223   179.65132331
 C     17   7   1     2.588560948076   121.38864571   179.86863511
 C     18  17   7     2.645386917537   120.64171295   359.97016487
 C     19  18  17     2.581634868093   119.56719565     0.09906979
 C     11  10   9     2.646720375444   121.31306068   359.49132244
 C     21  11  10     2.599310119829   121.91373052   180.00113983
 C     22  21  11     2.622128381254   119.63580975     0.00000000
 C     23  22  21     2.599166330351   119.58118535     0.05349295
 H      5   4   3     2.042461514196   118.33403195   180.03568713
 H      6   5   4     2.036817447132   118.81989352   180.06836583
 H      9   8   7     2.037900858006   116.21107959   180.01963202
 H     14  13   3     2.036575997749   120.55772092   180.05659863
 H     15  14  13     2.041592108111   119.44511430   179.98943780
 H     16  15  14     2.041669633572   120.86843779   179.99137933
 H     17   7   1     2.037784837101   120.28557098   359.80595158
 H     18  17   7     2.041558952784   119.88405070   179.96781421
 H     19  18  17     2.041032357221   119.77097666   180.05334938
 H     20  19  18     2.042780707054   120.57092862   179.92751341
 H     21  11  10     2.036547132775   120.19632362   359.93496455
 H     22  21  11     2.041022886607   120.06934625   179.99445693
 H     23  22  21     2.040981646003   120.31440683   180.00580414
 H     24  23  22     2.036665317374   117.98381599   179.91541045

---------------------
BASIS SET INFORMATION
---------------------
There are 2 groups of distinct atoms

 Group   1 Type C   : 7s4p1d contracted to 3s2p1d pattern {511/31/1}
 Group   2 Type H   : 4s1p contracted to 2s1p pattern {31/1}

Atom   0C    basis set group =>   1
Atom   1C    basis set group =>   1
Atom   2C    basis set group =>   1
Atom   3C    basis set group =>   1
Atom   4C    basis set group =>   1
Atom   5C    basis set group =>   1
Atom   6C    basis set group =>   1
Atom   7C    basis set group =>   1
Atom   8C    basis set group =>   1
Atom   9C    basis set group =>   1
Atom  10C    basis set group =>   1
Atom  11C    basis set group =>   1
Atom  12C    basis set group =>   1
Atom  13C    basis set group =>   1
Atom  14C    basis set group =>   1
Atom  15C    basis set group =>   1
Atom  16C    basis set group =>   1
Atom  17C    basis set group =>   1
Atom  18C    basis set group =>   1
Atom  19C    basis set group =>   1
Atom  20C    basis set group =>   1
Atom  21C    basis set group =>   1
Atom  22C    basis set group =>   1
Atom  23C    basis set group =>   1
Atom  24H    basis set group =>   2
Atom  25H    basis set group =>   2
Atom  26H    basis set group =>   2
Atom  27H    basis set group =>   2
Atom  28H    basis set group =>   2
Atom  29H    basis set group =>   2
Atom  30H    basis set group =>   2
Atom  31H    basis set group =>   2
Atom  32H    basis set group =>   2
Atom  33H    basis set group =>   2
Atom  34H    basis set group =>   2
Atom  35H    basis set group =>   2
Atom  36H    basis set group =>   2
Atom  37H    basis set group =>   2
---------------------------------
AUXILIARY/C BASIS SET INFORMATION
---------------------------------
There are 2 groups of distinct atoms

 Group   1 Type C   : 8s6p5d3f contracted to 6s5p4d1f pattern {311111/21111/2111/3}
 Group   2 Type H   : 4s3p2d contracted to 3s2p1d pattern {211/21/2}

Atom   0C    basis set group =>   1
Atom   1C    basis set group =>   1
Atom   2C    basis set group =>   1
Atom   3C    basis set group =>   1
Atom   4C    basis set group =>   1
Atom   5C    basis set group =>   1
Atom   6C    basis set group =>   1
Atom   7C    basis set group =>   1
Atom   8C    basis set group =>   1
Atom   9C    basis set group =>   1
Atom  10C    basis set group =>   1
Atom  11C    basis set group =>   1
Atom  12C    basis set group =>   1
Atom  13C    basis set group =>   1
Atom  14C    basis set group =>   1
Atom  15C    basis set group =>   1
Atom  16C    basis set group =>   1
Atom  17C    basis set group =>   1
Atom  18C    basis set group =>   1
Atom  19C    basis set group =>   1
Atom  20C    basis set group =>   1
Atom  21C    basis set group =>   1
Atom  22C    basis set group =>   1
Atom  23C    basis set group =>   1
Atom  24H    basis set group =>   2
Atom  25H    basis set group =>   2
Atom  26H    basis set group =>   2
Atom  27H    basis set group =>   2
Atom  28H    basis set group =>   2
Atom  29H    basis set group =>   2
Atom  30H    basis set group =>   2
Atom  31H    basis set group =>   2
Atom  32H    basis set group =>   2
Atom  33H    basis set group =>   2
Atom  34H    basis set group =>   2
Atom  35H    basis set group =>   2
Atom  36H    basis set group =>   2
Atom  37H    basis set group =>   2
----------------------------------
AUXILIARY/JK BASIS SET INFORMATION
----------------------------------
There are 2 groups of distinct atoms

 Group   1 Type C   : 14s10p6d2f1g contracted to 10s8p5d1f1g pattern {5111111111/31111111/21111/2/1}
 Group   2 Type H   : 4s2p2d contracted to 2s2p2d pattern {31/11/11}

Atom   0C    basis set group =>   1
Atom   1C    basis set group =>   1
Atom   2C    basis set group =>   1
Atom   3C    basis set group =>   1
Atom   4C    basis set group =>   1
Atom   5C    basis set group =>   1
Atom   6C    basis set group =>   1
Atom   7C    basis set group =>   1
Atom   8C    basis set group =>   1
Atom   9C    basis set group =>   1
Atom  10C    basis set group =>   1
Atom  11C    basis set group =>   1
Atom  12C    basis set group =>   1
Atom  13C    basis set group =>   1
Atom  14C    basis set group =>   1
Atom  15C    basis set group =>   1
Atom  16C    basis set group =>   1
Atom  17C    basis set group =>   1
Atom  18C    basis set group =>   1
Atom  19C    basis set group =>   1
Atom  20C    basis set group =>   1
Atom  21C    basis set group =>   1
Atom  22C    basis set group =>   1
Atom  23C    basis set group =>   1
Atom  24H    basis set group =>   2
Atom  25H    basis set group =>   2
Atom  26H    basis set group =>   2
Atom  27H    basis set group =>   2
Atom  28H    basis set group =>   2
Atom  29H    basis set group =>   2
Atom  30H    basis set group =>   2
Atom  31H    basis set group =>   2
Atom  32H    basis set group =>   2
Atom  33H    basis set group =>   2
Atom  34H    basis set group =>   2
Atom  35H    basis set group =>   2
Atom  36H    basis set group =>   2
Atom  37H    basis set group =>   2


           ************************************************************
           *        Program running with 104 parallel MPI-processes   *
           *              working on a common directory               *
           ************************************************************
------------------------------------------------------------------------------
                             ORCA STARTUP CALCULATIONS
                           -- RI-GTO INTEGRALS CHOSEN --
------------------------------------------------------------------------------
------------------------------------------------------------------------------
                   ___                                                        
                  /   \      - P O W E R E D   B Y -                         
                 /     \                                                     
                 |  |  |   _    _      __       _____    __    __             
                 |  |  |  | |  | |    /  \     |  _  \  |  |  /  |          
                  \  \/   | |  | |   /    \    | | | |  |  | /  /          
                 / \  \   | |__| |  /  /\  \   | |_| |  |  |/  /          
                |  |  |   |  __  | /  /__\  \  |    /   |      \           
                |  |  |   | |  | | |   __   |  |    \   |  |\   \          
                \     /   | |  | | |  |  |  |  | |\  \  |  | \   \       
                 \___/    |_|  |_| |__|  |__|  |_| \__\ |__|  \__/        
                                                                              
                      - O R C A' S   B I G   F R I E N D -                    
                                      &                                       
                       - I N T E G R A L  F E E D E R -                       
                                                                              
 v1 FN, 2020, v2 2021, v3 2022-2024                                           
------------------------------------------------------------------------------


----------------------
SHARK INTEGRAL PACKAGE
----------------------

Number of atoms                             ...     38
Number of basis functions                   ...    406
Number of shells                            ...    186
Maximum angular momentum                    ...      2
Integral batch strategy                     ... SHARK/LIBINT Hybrid
RI-J (if used) integral strategy            ... SPLIT-RIJ (Revised 2003 algorithm where possible)
Printlevel                                  ...      1
Contraction scheme used                     ... SEGMENTED contraction
Prescreening option                         ... SCHWARTZ
   Thresh                                   ... 1.000e-10
   Tcut                                     ... 1.000e-11
   Tpresel                                  ... 1.000e-11 
Coulomb Range Separation                    ... NOT USED
Exchange Range Separation                   ... NOT USED
Multipole approximations                    ... NOT USED
Finite Nucleus Model                        ... NOT USED
CABS basis                                  ... NOT available
Auxiliary Coulomb fitting basis             ... NOT available
Auxiliary J/K fitting basis                 ... AVAILABLE
   # of basis functions in Aux-JK           ...   2052
   # of shells in Aux-JK                    ...    684
   Maximum angular momentum in Aux-JK       ...      4
Auxiliary Correlation fitting basis         ... AVAILABLE
   # of basis functions in Aux-C            ...   1348
   # of shells in Aux-C                     ...    468
   Maximum angular momentum in Aux-C        ...      3
Auxiliary 'external' fitting basis          ... NOT available

Checking pre-screening integrals            ... done (  0.0 sec) Dimension = 186
Check shell pair data                       ... done (  0.0 sec)
Shell pair information
Shell pair cut-off parameter TPreSel        ...   1.0e-11
Total number of shell pairs                 ...     17391
Shell pairs after pre-screening             ...     12843
Total number of primitive shell pairs       ...     64615
Primitive shell pairs kept                  ...     30444
          la=0 lb=0:   3745 shell pairs
          la=1 lb=0:   4684 shell pairs
          la=1 lb=1:   1539 shell pairs
          la=2 lb=0:   1635 shell pairs
          la=2 lb=1:   1064 shell pairs
          la=2 lb=2:    176 shell pairs

Calculating one electron integrals          ... done (  0.0 sec)
Calculating RI/JK V-Matrix + Cholesky decomp... done (  0.5 sec)
Calculating RI/C V-Matrix + Cholesky decomp.... done (  0.3 sec)
Calculating Nuclear repulsion               ... done (  0.0 sec) ENN=   1814.456324803226 Eh

Diagonalization of the overlap matrix:
Smallest eigenvalue                        ... 1.022e-04
Time for diagonalization                   ...    0.020 sec
Threshold for overlap eigenvalues          ... 1.000e-07
Number of eigenvalues below threshold      ... 0
Time for construction of square roots      ...    0.013 sec
Total time needed                          ...    0.054 sec

-------------------
DFT GRID GENERATION
-------------------

General Integration Accuracy     IntAcc      ... 4.959
Radial Grid Type                 RadialGrid  ... OptM3 with GC (2021)
Angular Grid (max. ang.)         AngularGrid ... 6 (Lebedev-590)
Angular grid pruning method      GridPruning ... 4 (adaptive)
Weight generation scheme         WeightScheme... mBecke (2022)
Basis function cutoff            BFCut       ... 1.0000e-10
Integration weight cutoff        WCut        ... 1.0000e-14
Partially contracted basis set               ... off
Rotationally invariant grid construction     ... off
Angular grids for H and He will be reduced by one unit

Total number of grid points                  ...   457151
Total number of batches                      ...     7162
Average number of points per batch           ...       63
Average number of grid points per atom       ...    12030
Initializing property integral containers    ... done (  0.0 sec)

SHARK setup successfully completed in   5.1 seconds

Maximum memory used throughout the entire STARTUP-calculation: 89.5 MB


           ************************************************************
           *        Program running with 104 parallel MPI-processes   *
           *              working on a common directory               *
           ************************************************************
-------------------------------------------------------------------------------
                                 ORCA GUESS
                   Start orbitals & Density for SCF / CASSCF
-------------------------------------------------------------------------------

------------
SCF SETTINGS
------------
Hamiltonian:
 Density Functional     Method          .... DFT(GTOs)
 Exchange Functional    Exchange        .... PBE
   PBE kappa parameter   XKappa         ....  0.804000
   PBE mue parameter    XMuePBE         ....  0.219520
 Correlation Functional Correlation     .... P86
 LDA part of GGA corr.  LDAOpt          .... VWN-5
 Gradients option       PostSCFGGA      .... off
 Hybrid DFT is turned on
   Fraction HF Exchange ScalHFX         ....  0.690000
   Scaling of DF-GGA-X  ScalDFX         ....  0.310000
   Scaling of DF-GGA-C  ScalDFC         ....  0.403800
   Scaling of DF-LDA-C  ScalLDAC        ....  0.403800
   Perturbative correction              ....  1.000000
 RI-approximation to the Coulomb term is turned on
   Number of AuxJK basis functions      .... 2052
   RI-JK (J+K treated both via RI)      .... on


General Settings:
 Integral files         IntName         .... compas3x_hc_c24h14_0pent_8_dz_rijk
 Hartree-Fock type      HFTyp           .... RHF
 Total Charge           Charge          ....    0
 Multiplicity           Mult            ....    1
 Number of Electrons    NEL             ....  158
 Basis Dimension        Dim             ....  406
 Nuclear Repulsion      ENuc            ....   1814.4563248032 Eh

Convergence Acceleration:
 AO-DIIS                CNVDIIS         .... on
   Start iteration      DIISMaxIt       ....    12
   Startup error        DIISStart       ....  0.200000
   # of expansion vecs  DIISMaxEq       ....     5
   Bias factor          DIISBfac        ....   1.050
   Max. coefficient     DIISMaxC        ....  10.000
 MO-DIIS                CNVKDIIS        .... off
 Trust-Rad. Augm. Hess. CNVTRAH         .... auto
   Auto Start mean grad. ratio tolernc. ....  1.125000
   Auto Start start iteration           ....    50
   Auto Start num. interpolation iter.  ....    10
   Max. Number of Micro iterations      ....    24
   Max. Number of Macro iterations      .... Maxiter - #DIIS iter
   Number of Davidson start vectors     ....     2
   Converg. threshold    (grad. norm)   ....   5.000e-05
   Grad. Scal. Fac. for Micro threshold ....   0.100
   Minimum threshold for Micro iter.    ....   1.000e-02
   NR start threshold (gradient norm)   ....   1.000e-04
   Initial trust radius                 ....   0.400
   Minimum AH scaling param. (alpha)    ....   1.000
   Maximum AH scaling param. (alpha)    .... 1000.000
   Quad. conv. algorithm                .... NR
   White noise on init. David. guess    .... on
   Maximum white noise                  ....   0.010
   Pseudo random numbers                .... off
   Inactive MOs                         .... canonical
   Orbital update algorithm             .... Taylor
   Preconditioner                       .... Diag
   Full preconditioner red. dimension   ....   250
 SOSCF                  CNVSOSCF        .... on
   Start iteration      SOSCFMaxIt      ....   150
   Startup grad/error   SOSCFStart      ....  0.003300
   Hessian update       SOSCFHessUp     .... L-BFGS
 Level Shifting         CNVShift        .... on
   Level shift para.    LevelShift      ....    0.2500
   Turn off err/grad.   ShiftErr        ....    0.0010
 Zerner damping         CNVZerner       .... off
 Static damping         CNVDamp         .... on
   Fraction old density DampFac         ....    0.7000
   Max. Damping (<1)    DampMax         ....    0.9800
   Min. Damping (>=0)   DampMin         ....    0.0000
   Turn off err/grad.   DampErr         ....    0.1000

SCF Procedure:
 Maximum # iterations   MaxIter         ....   125
 SCF integral mode      SCFMode         .... Direct
   Integral package                     .... SHARK and LIBINT hybrid scheme
 Reset frequency        DirectResetFreq ....    20
 Integral Threshold     Thresh          ....  1.000e-10 Eh
 Primitive CutOff       TCut            ....  1.000e-11 Eh

Convergence Tolerance:
 Convergence Check Mode ConvCheckMode   .... Total+1el-Energy
 Convergence forced     ConvForced      .... 0
 Energy Change          TolE            ....  1.000e-06 Eh
 1-El. energy change                    ....  1.000e-03 Eh
 Orbital Gradient       TolG            ....  5.000e-05
 Orbital Rotation angle TolX            ....  5.000e-05
 DIIS Error             TolErr          ....  1.000e-06

------------------------------
INITIAL GUESS: MODEL POTENTIAL
------------------------------
Loading Hartree-Fock densities                     ... done
Calculating cut-offs                               ... done
Initializing the effective Hamiltonian             ... done
Setting up the integral package (SHARK)            ... done
Starting the Coulomb interaction                   ... done (   0.1 sec)
Making the grid                                    ... done (   0.3 sec)
Mapping shells                                     ... done
Starting the XC term evaluation                    ... done (   0.0 sec)
  promolecular density results
     # of electrons  =    157.981956205
     EX              =   -127.050155415
     EC              =      0.198380661
     EX+EC           =   -126.851774754
Transforming the Hamiltonian                       ... done (   0.0 sec)
Diagonalizing the Hamiltonian                      ... done (   0.0 sec)
Back transforming the eigenvectors                 ... done (   0.0 sec)
Now organizing SCF variables                       ... done
                      ------------------
                      INITIAL GUESS DONE (   0.6 sec)
                      ------------------
             **** ENERGY FILE WAS UPDATED (compas3x_hc_c24h14_0pent_8_dz_rijk.en.tmp) ****
Finished Guess after  15.1 sec
Maximum memory used throughout the entire GUESS-calculation: 33.2 MB


           ************************************************************
           *        Program running with 104 parallel MPI-processes   *
           *              working on a common directory               *
           ************************************************************

-------------------------------------------------------------------------------------------
                                      ORCA LEAN-SCF
                              memory conserving SCF solver
-------------------------------------------------------------------------------------------

----------------------------------------D-I-I-S--------------------------------------------
Iteration    Energy (Eh)           Delta-E    RMSDP     MaxDP     DIISErr   Damp  Time(sec)
-------------------------------------------------------------------------------------------
    1    -918.1491567464213404     0.00e+00  4.15e-03  1.09e-01  1.20e-01  0.700   2.1
    2    -917.9770934287876116     1.72e-01  3.49e-03  8.71e-02  1.09e-01  0.700   2.2
                               ***Turning on AO-DIIS***
    3    -918.0601451412680944    -8.31e-02  2.52e-03  6.35e-02  6.42e-02  0.700   2.1
    4    -918.2365083397339731    -1.76e-01  4.91e-03  1.34e-01  3.00e-02  0.000   5.8
    5    -918.5476668547557892    -3.11e-01  5.18e-04  1.09e-02  3.00e-02  0.000   2.5
    6    -918.5582722020367328    -1.06e-02  3.17e-04  6.43e-03  1.54e-02  0.000   2.2
    7    -918.5614757746920986    -3.20e-03  1.50e-04  3.52e-03  5.74e-03  0.000   2.2
                              *** Initializing SOSCF ***
---------------------------------------S-O-S-C-F--------------------------------------
Iteration    Energy (Eh)           Delta-E    RMSDP     MaxDP     MaxGrad    Time(sec)
--------------------------------------------------------------------------------------
    8    -918.5619771097976809    -5.01e-04  5.08e-05  1.39e-03  1.47e-03     2.4
    9    -918.5620195025471730    -4.24e-05  2.39e-05  5.30e-04  1.37e-04     2.5
   10    -918.5620224231984139    -2.92e-06  1.53e-05  3.16e-04  1.65e-04     2.1
   11    -918.5620235543265153    -1.13e-06  5.84e-06  1.56e-04  4.02e-05     2.6
   12    -918.5620237211528547    -1.67e-07  2.04e-06  4.20e-05  1.14e-05     2.0
                 **** Energy Check signals convergence ****

               *****************************************************
               *                     SUCCESS                       *
               *           SCF CONVERGED AFTER  12 CYCLES          *
               *****************************************************

             **** ENERGY FILE WAS UPDATED (compas3x_hc_c24h14_0pent_8_dz_rijk.en.tmp) ****

----------------
TOTAL SCF ENERGY
----------------

Total Energy       :       -918.56202372115285 Eh          -24995.34340 eV

Components:
Nuclear Repulsion  :       1814.45632480322593 Eh           49373.86672 eV
Electronic Energy  :      -2733.01834852437878 Eh          -74369.21012 eV
One Electron Energy:      -4847.39886518940693 Eh         -131904.42901 eV
Two Electron Energy:       2114.38051666502815 Eh           57535.21889 eV

Virial components:
Potential Energy   :      -1831.00205742774642 Eh          -49824.09899 eV
Kinetic Energy     :        912.44003370659368 Eh           24828.75559 eV
Virial Ratio       :          2.00670947107580

DFT components:
N(Alpha)           :       78.999995939380 electrons
N(Beta)            :       78.999995939380 electrons
N(Total)           :      157.999991878760 electrons
E(X)               :      -39.975230339111 Eh       
E(C)               :       -2.358737288213 Eh       
E(XC)              :      -42.333967627324 Eh       

---------------
SCF CONVERGENCE
---------------

  Last Energy change         ...    1.6683e-07  Tolerance :   1.0000e-06
  Last MAX-Density change    ...    4.2042e-05  Tolerance :   1.0000e-05
  Last RMS-Density change    ...    2.0436e-06  Tolerance :   1.0000e-06
  Last DIIS Error            ...    1.4727e-03  Tolerance :   1.0000e-06
  Last Orbital Gradient      ...    1.1398e-05  Tolerance :   5.0000e-05
  Last Orbital Rotation      ...    2.7801e-05  Tolerance :   5.0000e-05


----------------
ORBITAL ENERGIES
----------------

  NO   OCC          E(Eh)            E(eV) 
   0   2.0000     -10.839826      -294.9667 
   1   2.0000     -10.839518      -294.9583 
   2   2.0000     -10.839438      -294.9561 
   3   2.0000     -10.839078      -294.9463 
   4   2.0000     -10.838615      -294.9337 
   5   2.0000     -10.838256      -294.9239 
   6   2.0000     -10.836951      -294.8884 
   7   2.0000     -10.836850      -294.8857 
   8   2.0000     -10.833977      -294.8075 
   9   2.0000     -10.833720      -294.8005 
  10   2.0000     -10.829212      -294.6778 
  11   2.0000     -10.829054      -294.6735 
  12   2.0000     -10.828746      -294.6651 
  13   2.0000     -10.828435      -294.6567 
  14   2.0000     -10.828253      -294.6517 
  15   2.0000     -10.828089      -294.6473 
  16   2.0000     -10.828069      -294.6467 
  17   2.0000     -10.827981      -294.6443 
  18   2.0000     -10.827817      -294.6399 
  19   2.0000     -10.827569      -294.6331 
  20   2.0000     -10.827248      -294.6244 
  21   2.0000     -10.827028      -294.6184 
  22   2.0000     -10.827011      -294.6179 
  23   2.0000     -10.826615      -294.6072 
  24   2.0000      -1.089724       -29.6529 
  25   2.0000      -1.057418       -28.7738 
  26   2.0000      -1.045187       -28.4410 
  27   2.0000      -1.012726       -27.5577 
  28   2.0000      -0.991616       -26.9832 
  29   2.0000      -0.959813       -26.1179 
  30   2.0000      -0.946928       -25.7672 
  31   2.0000      -0.926891       -25.2220 
  32   2.0000      -0.910687       -24.7811 
  33   2.0000      -0.891918       -24.2703 
  34   2.0000      -0.883998       -24.0548 
  35   2.0000      -0.861154       -23.4332 
  36   2.0000      -0.790100       -21.4997 
  37   2.0000      -0.778479       -21.1835 
  38   2.0000      -0.773919       -21.0594 
  39   2.0000      -0.769858       -20.9489 
  40   2.0000      -0.737756       -20.0754 
  41   2.0000      -0.717398       -19.5214 
  42   2.0000      -0.699628       -19.0378 
  43   2.0000      -0.667490       -18.1633 
  44   2.0000      -0.663612       -18.0578 
  45   2.0000      -0.643964       -17.5232 
  46   2.0000      -0.631718       -17.1899 
  47   2.0000      -0.605267       -16.4702 
  48   2.0000      -0.595215       -16.1966 
  49   2.0000      -0.591022       -16.0825 
  50   2.0000      -0.581578       -15.8256 
  51   2.0000      -0.567775       -15.4499 
  52   2.0000      -0.555114       -15.1054 
  53   2.0000      -0.548074       -14.9139 
  54   2.0000      -0.536412       -14.5965 
  55   2.0000      -0.532499       -14.4900 
  56   2.0000      -0.528623       -14.3846 
  57   2.0000      -0.522095       -14.2069 
  58   2.0000      -0.520020       -14.1505 
  59   2.0000      -0.509854       -13.8738 
  60   2.0000      -0.496287       -13.5047 
  61   2.0000      -0.483056       -13.1446 
  62   2.0000      -0.481992       -13.1157 
  63   2.0000      -0.471622       -12.8335 
  64   2.0000      -0.467065       -12.7095 
  65   2.0000      -0.459859       -12.5134 
  66   2.0000      -0.451870       -12.2960 
  67   2.0000      -0.441348       -12.0097 
  68   2.0000      -0.425145       -11.5688 
  69   2.0000      -0.417213       -11.3529 
  70   2.0000      -0.410460       -11.1692 
  71   2.0000      -0.402285       -10.9467 
  72   2.0000      -0.366667        -9.9775 
  73   2.0000      -0.344416        -9.3720 
  74   2.0000      -0.329472        -8.9654 
  75   2.0000      -0.310794        -8.4571 
  76   2.0000      -0.287358        -7.8194 
  77   2.0000      -0.269582        -7.3357 
  78   2.0000      -0.235491        -6.4080 
  79   0.0000      -0.000547        -0.0149 
  80   0.0000       0.031461         0.8561 
  81   0.0000       0.039331         1.0702 
  82   0.0000       0.065137         1.7725 
  83   0.0000       0.086616         2.3569 
  84   0.0000       0.113970         3.1013 
  85   0.0000       0.133781         3.6404 
  86   0.0000       0.136519         3.7149 
  87   0.0000       0.140900         3.8341 
  88   0.0000       0.142643         3.8815 
  89   0.0000       0.160201         4.3593 
*Only the first 10 virtual orbitals were printed.
-------
TIMINGS
-------

Total SCF time: 0 days 0 hours 0 min 45 sec 

Total time                  ....      45.521 sec
Sum of individual times     ....      45.306 sec  ( 99.5%)

SCF preparation             ....      14.468 sec  ( 31.8%)
Fock matrix formation       ....      25.360 sec  ( 55.7%)
  Startup                   ....       1.354 sec  (  5.3% of F)
  RI-JK                     ....      12.918 sec  ( 50.9% of F)
  XC integration            ....       8.459 sec  ( 33.4% of F)
    XC Preparation          ....       0.000 sec  (  0.0% of XC)
    Basis function eval.    ....       0.319 sec  (  3.8% of XC)
    Density eval.           ....       0.223 sec  (  2.6% of XC)
    XC-Functional eval.     ....       0.042 sec  (  0.5% of XC)
    XC-Potential eval.      ....       0.309 sec  (  3.7% of XC)
Diagonalization             ....       0.000 sec  (  0.0%)
Density matrix formation    ....       1.271 sec  (  2.8%)
Total Energy calculation    ....       0.937 sec  (  2.1%)
Population analysis         ....       0.000 sec  (  0.0%)
Orbital Transformation      ....       0.304 sec  (  0.7%)
Orbital Orthonormalization  ....       0.000 sec  (  0.0%)
DIIS solution               ....       2.156 sec  (  4.7%)
SOSCF solution              ....       0.766 sec  (  1.7%)
Finished LeanSCF after  45.8 sec

Maximum memory used throughout the entire LEANSCF-calculation: 99.4 MB


           ************************************************************
           *        Program running with 104 parallel MPI-processes   *
           *              working on a common directory               *
           ************************************************************

------------------------------------------------------------------------------
                                ORCA  MP2 
------------------------------------------------------------------------------


-------------
RI-MP2 ENERGY
-------------
Dimension of the orbital basis            ...  406
Dimension of the AuxC basis               ... 1348
Memory devoted to MP2                     ... 4096 MB   
Data format for matrix containers         ... DOUBLE
Compression type for matrix containers    ... UNCOMPRESSED
Scaling for aa/bb pairs                   ...   5.710e-02
Scaling for ab pairs                      ...   5.979e-01
Overall scaling of the MP2 energy         ...   1.000e+00

-----------------------
SHARK RI TRANSFORMATION
-----------------------

Number of basis functions                ...    406
Number of aux functions                  ...   1348
Number of operators                      ...      1
Generation of IJK                        ... NO
Generation of IAK                        ... YES
Generation of ABK                        ... NO
Orbital Range Operator  0:    0-  78 to   79- 405

Aux basis identifier                     ...   AUXC
Contraction scheme used                  ... SEGMENTED
Do orthogonalization                     ... YES
All operator combinations                ... NO
Transpose (ia|K)                         ... NO
Integral generator used                  ... LIBINT
Starting integral generation + trafo... 
Half trafo (segmented) done. Total time =  0.6 sec. integrals=  0.1 sec trafo=  0.0 sec
Integral generation and half transformation done (  0.6 sec)

Reading or making V^(-1/2)          ... done (  0.1 sec)
Sorting IAK integrals               ... done (  1.5 sec)

SHARK RI integral transformation done. Total time =  2.2 sec.

Opening buffers                              ... done

Starting loop over batches of integrals:

Operator 0  - window                       ... (  0- 78)x( 79-405)
Operator 0  - Memory available             ...  4096 MB
Operator 0  - Memory needed per MO         ...   3.4 MB
Operator 0  - Number of orbitals per batch ... 1
Operator 0  - Number of batches            ... 1

OPERATOR  0   PASS   0:  MOs     0 ...    0 +    1 ...    1 +    2 ...    2 +    3 ...    3
                            +    4 ...    4 +    5 ...    5 +    6 ...    6 +    7 ...    7
                            +    8 ...    8 +    9 ...    9 +   10 ...   10 +   11 ...   11
                            +   12 ...   12 +   13 ...   13 +   14 ...   14 +   15 ...   15
                            +   16 ...   16 +   17 ...   17 +   18 ...   18 +   19 ...   19
                            +   20 ...   20 +   21 ...   21 +   22 ...   22 +   23 ...   23
                            +   24 ...   24 +   25 ...   25 +   26 ...   26 +   27 ...   27
                            +   28 ...   28 +   29 ...   29 +   30 ...   30 +   31 ...   31
                            +   32 ...   32 +   33 ...   33 +   34 ...   34 +   35 ...   35
                            +   36 ...   36 +   37 ...   37 +   38 ...   38 +   39 ...   39
                            +   40 ...   40 +   41 ...   41 +   42 ...   42 +   43 ...   43
                            +   44 ...   44 +   45 ...   45 +   46 ...   46 +   47 ...   47
                            +   48 ...   48 +   49 ...   49 +   50 ...   50 +   51 ...   51
                            +   52 ...   52 +   53 ...   53 +   54 ...   54 +   55 ...   55
                            +   56 ...   56 +   57 ...   57 +   58 ...   58 +   59 ...   59
                            +   60 ...   60 +   61 ...   61 +   62 ...   62 +   63 ...   63
                            +   64 ...   64 +   65 ...   65 +   66 ...   66 +   67 ...   67
                            +   68 ...   68 +   69 ...   69 +   70 ...   70 +   71 ...   71
                            +   72 ...   72 +   73 ...   73 +   74 ...   74 +   75 ...   75
                            +   76 ...   76 +   77 ...   77 +   78 ...   78
  Reading integrals       ... ok
Time spent in pair loops =     0.737 sec

-----------------------------------------------
 RI-MP2 CORRELATION ENERGY:     -1.604959479 Eh
-----------------------------------------------


-------
TIMINGS
-------

Total time                :    3.451 sec
Integral trafo            :    2.239 sec ( 64.9%)
K(i,j) operators          :    0.008 sec (  0.2%)
T(i,j) pair energies      :    0.001 sec (  0.0%)
V**(-1/2)                 :    0.471 sec ( 13.6%)


---------------------------------------
MP2 TOTAL ENERGY:     -920.166983200 Eh
---------------------------------------

Maximum memory used throughout the entire MP2-calculation: 40.3 MB


-------------------------------------------------------------------------------
                          DFT DISPERSION CORRECTION                            
                                                                               
                                DFTD4 V3.4.0                                   
-------------------------------------------------------------------------------
The REV-DSD-PBEP86-2021 functional is recognized
A user input s6-coefficient scaling factor has been recognized
A user input a1-coefficient scaling factor has been recognized
A user input s8-coefficient scaling factor has been recognized
A user input a2-coefficient scaling factor has been recognized
A user input s9-coefficient scaling factor has been recognized
Active option DFTDOPT                   ...         5   

-------------------------   ----------------
Dispersion correction           -0.038568784
-------------------------   ----------------


-------------------------   --------------------
FINAL SINGLE POINT ENERGY      -920.205551983875
-------------------------   --------------------



           ************************************************************
           *        Program running with 104 parallel MPI-processes   *
           *              working on a common directory               *
           ************************************************************

------------------------------------------------------------------------------
                              ORCA PROPERTY CALCULATIONS
------------------------------------------------------------------------------

GBWName                                 ... compas3x_hc_c24h14_0pent_8_dz_rijk.gbw
Number of atoms                         ...     38
Number of basis functions               ...    406
Max core memory                         ...   1024 MB

Electric properties:
Dipole moment                           ... YES
Quadrupole moment                       ...  NO
Static polarizability (Dipole/Dipole)   ...  NO
Static polarizability (Dipole/Quad.)    ...  NO
Static polarizability (Quad./Quad.)     ...  NO
Static polarizability (Velocity)        ...  NO

Atomic electric properties:
Dipole moment                           ...  NO
Quadrupole moment                       ...  NO
Static polarizability                   ...  NO

Choice of electric origin               ... Center of mass
Position of electric origin             ...     0.010150     0.082230     0.000994

General magnetic properties:
Magnetizability                         ...  NO

EPR properties:
g-Tensor (aka g-matrix)                 ...  NO
Zero-Field splitting spin-orbit         ...  NO
Zero-field splitting spin-spin          ...  NO
Hyperfine couplings                     ...  NO (   0 nuclei)
Quadrupole couplings                    ...  NO (   0 nuclei)
Contact density                         ...  NO (   0 nuclei)

NMR properties:
Chemical shifts                         ...  NO (   0 nuclei)
Spin-rotation constants                 ...  NO (   0 nuclei)
Spin-spin couplings                     ...  NO (   0 nuclei,    0 pairs)

Choice of magnetic origin               ... GIAO
Position of magnetic origin             ...     0.000000     0.000000     0.000000

Properties with geometric perturbations:
SCF Hessian                             ...  NO
IR spectrum                             ...  NO
VCD spectrum                            ...  NO
X-ray spectroscopy properties:
SCF XES/XAS/RIXS spectra                ...  NO


-------------
DIPOLE MOMENT
-------------

Method             : SCF
Type of density    : Electron Density
Multiplicity       :   1
Irrep              :   0
Energy             :  -918.5620237211528547 Eh
Relativity type    : 
Basis              : AO
                                X                 Y                 Z
Electronic contribution:      0.183740562       1.681863932       0.014120131
Nuclear contribution   :     -0.207994413      -1.694457243      -0.015352843
                        -----------------------------------------
Total Dipole Moment    :     -0.024253851      -0.012593311      -0.001232712
                        -----------------------------------------
Magnitude (a.u.)       :      0.027356176
Magnitude (Debye)      :      0.069533873



--------------------
Rotational spectrum 
--------------------
 
Rotational constants in cm-1:             0.013101             0.007308             0.004691 
Rotational constants in MHz :           392.745125           219.095234           140.640013 

Dipole components along the rotational axes: 
x,y,z [a.u.] :    -0.013472    -0.023779    -0.001196 
x,y,z [Debye]:    -0.034243    -0.060441    -0.003040 

 

Dipole moment calculation done in   0.1 sec 

Maximum memory used throughout the entire PROP-calculation: 24.8 MB

--------------------------------
SUGGESTED CITATIONS FOR THIS RUN
--------------------------------

Below you find a list of papers that are relevant to this ORCA run
We neither can nor want to force you to cite these papers, but we appreciate if you do
You receive ORCA, which is the product of decades of hard work by many enthusiastic individuals, for free
The only thing we kindly ask in return is that you cite our papers,
We deeply appreciate it, if you show your appreciation for ORCA by not just citing the generic ORCA reference.

Please note that relegating all ORCA citations to the supporting information does *not* help us.
SI sections are not indexed - citations you put there will not count into any citation statistics
But we need these citations in order to attract the funding resources that allow us to do what we are doing

Therefore, if you are a happy ORCA user, please consider citing a few of the papers listed below in the main body of your paper

In addition to the list printed below, the program has created the file compas3x_hc_c24h14_0pent_8_dz_rijk.bibtex that contains the list in bibtex format
You can import this file easily into all common literature databanks and citation aid programs


List of essential papers. We consider these as the minimum necessary citations

  1. Neese,F.
     Software update: the ORCA program system, version 5.0
     WIRES Comput. Molec. Sci., 2022 12(1)e1606
     doi.org/10.1002/wcms.1606

List of papers to cite with high priority. The work reported in these papers was absolutely
necessary for this run to complete.
Our perspective: the developers of density functionals and basis sets usually get cited in chemistry papers
Good! But without the algorithms to do something with them, the functionals or basis sets would not do anything.
Hence, in our opinion, the algorithm design and method developments papers are equally worthy of getting cited

  1. Neese,F.
     An improvement of the resolution of the identity approximation for the formation of the Coulomb matrix
     J. Comp. Chem., 2003 24(14)1740-1747
     doi.org/10.1002/jcc.10318
  2. Kossmann,S.; Neese,F.
     Comparison of two efficient approximate Hartee-Fock approaches
     Chem. Phys. Lett., 2009 481 240-243
     doi.org/10.1016/j.cplett.2009.09.073
  3. Neese,F.
     The SHARK Integral Generation and Digestion System
     J. Comp. Chem., 2022  1-16
     doi.org/10.1002/jcc.26942
  4. Caldeweyher,E.; Bannwarth,C.; Grimme,S.
     Extension of the D3 dispersion coefficient model
     J. Chem. Phys., 2017 147 034112
     doi.org/10.1063/1.4993215
  5. Caldeweyher,E.; Ehlert,S.; Hansen,A.; Neugebauer,H.; Spicher,S.; Bannwarth,C.; Grimme,S.
     A generally applicable atomic-charge dependent London dispersion correction
     J. Chem. Phys., 2019 150 154122
     doi.org/10.1063/1.5090222
  6. Caldeweyher,E.; Mewes,J.; Ehlert,S.; Grimme,S.
     Extension and evaluation of the D4 London-dispersion model for periodic systems
     Phys. Chem. Chem. Phys., 2020 22(16)8499-8512
     doi.org/10.1039/D0CP00502A
  7. Wittmann,L.; Gordiy,I.; Friede,M.; Helmich-Paris,B.; Grimme,S.; Hansen,A.; Bursch,M.
     Extension of the D3 and D4 London Dispersion Corrections to the full Actinides Series
     Phys. Chem. Chem. Phys., 2024 26(32)21379-21394
     doi.org/https://doi.org/10.1039/D4CP01514B 

List of suggested additional citations. These are papers that are important in the 'surrounding' of 
of this run, or papers that preceded the highly important papers. If you like your results we are grateful for a citation.

  1. Neese,F.
     The ORCA program system
     WIRES Comput. Molec. Sci., 2012 2(1)73-78
     doi.org/10.1002/wcms.81
  2. Neese,F.
     Software update: the ORCA program system, version 4.0
     WIRES Comput. Molec. Sci., 2018 8(1)1-6
     doi.org/10.1002/wcms.1327
  3. Neese,F.; Wennmohs,F.; Becker,U.; Riplinger,C.
     The ORCA quantum chemistry program package
     J. Chem. Phys., 2020 152 Art. No. L224108
     doi.org/10.1063/5.0004608

List of optional additional citations

  1. Neese,F.
     Approximate second-order SCF convergence for spin unrestricted wavefunctions
     Chem. Phys. Lett., 2000 325(1-3)93-98
     doi.org/10.1016/s0009-2614(00)00662-x

Timings for individual modules:

Sum of individual times          ...      120.697 sec (=   2.012 min)
Startup calculation              ...       21.080 sec (=   0.351 min)  17.5 %
SCF iterations                   ...       64.054 sec (=   1.068 min)  53.1 %
Property calculations            ...       15.871 sec (=   0.265 min)  13.1 %
MP2 module                       ...       19.692 sec (=   0.328 min)  16.3 %
                             ****ORCA TERMINATED NORMALLY****
TOTAL RUN TIME: 0 days 0 hours 2 minutes 27 seconds 822 msec
