
                                 *****************
                                 * O   R   C   A *
                                 *****************

                                            #,                                       
                                            ###                                      
                                            ####                                     
                                            #####                                    
                                            ######                                   
                                           ########,                                 
                                     ,,################,,,,,                         
                               ,,#################################,,                 
                          ,,##########################################,,             
                       ,#########################################, ''#####,          
                    ,#############################################,,   '####,        
                  ,##################################################,,,,####,       
                ,###########''''           ''''###############################       
              ,#####''   ,,,,##########,,,,          '''####'''          '####       
            ,##' ,,,,###########################,,,                        '##       
           ' ,,###''''                  '''############,,,                           
         ,,##''                                '''############,,,,        ,,,,,,###''
      ,#''                                            '''#######################'''  
     '                                                          ''''####''''         
             ,#######,   #######,   ,#######,      ##                                
            ,#'     '#,  ##    ##  ,#'     '#,    #''#        ,####,   ,####,        
            ##       ##  ##   ,#'  ##            #'  '#       #'       #'  '#        
            ##       ##  #######   ##           ,######,      #####,   #    #        
            '#,     ,#'  ##    ##  '#,     ,#' ,#      #,     #,   #   #,  ,#        
             '#######'   ##     ##  '#######'  #'      '#     '####' # '####'        



                #########################################################
                #                        -***-                          #
                #          Department of theory and spectroscopy        #
                #                                                       #
                #                      Frank Neese                      #
                #                                                       #
                #     Directorship, Architecture, Infrastructure        #
                #                    SHARK, DRIVERS                     #
                #        Core code/Algorithms in most modules           #
                #                                                       #
                #        Max Planck Institute fuer Kohlenforschung      #
                #                Kaiser Wilhelm Platz 1                 #
                #                 D-45470 Muelheim/Ruhr                 #
                #                      Germany                          #
                #                                                       #
                #                  All rights reserved                  #
                #                        -***-                          #
                #########################################################


                         Program Version 6.0.1  -  RELEASE   -


 With contributions from (in alphabetic order):
[Max-Planck-Institut fuer Kohlenforschung]                               
  Daniel Aravena         : Magnetic Suceptibility                        
  Michael Atanasov       : Ab Initio Ligand Field Theory (pilot matlab implementation)
  Alexander A. Auer      : GIAO ZORA, VPT2 properties, NMR spectrum      
  Ute Becker             : All parallelization in ORCA, NUMFREQ, NUMCALC 
  Giovanni Bistoni       : ED, misc. LED, open-shell LED, HFLD           
  Martin Brehm           : Molecular dynamics                            
  Dmytro Bykov           : pre 5.0 version of the SCF Hessian            
  Marcos Casanova-Páez   : Triplet and SCS-CIS(D). UHF-(DLPNO)-IP/EA/STEOM-CCSD. UHF-CVS-IP/STEOM-CCSD   
  Vijay G. Chilkuri      : MRCI spin determinant printing, contributions to CSF-ICE 
  Pauline Colinet        : FMM embedding                                 
  Dipayan Datta          : RHF DLPNO-CCSD density                        
  Achintya Kumar Dutta   : EOM-CC, STEOM-CC                              
  Nicolas Foglia         : Exact transition moments, OPA infrastructure, MCD improvements    
  Dmitry Ganyushin       : Spin-Orbit,Spin-Spin,Magnetic field MRCI      
  Miquel Garcia-Rates    : C-PCM and meta-GGA Hessian, CCSD/C-PCM, Gaussian charge scheme 
  Tiago L. C. Gouveia    : GS-ROHF, GS-ROCIS                             
  Yang Guo               : DLPNO-NEVPT2, F12-NEVPT2, CIM, IAO-localization        
  Andreas Hansen         : Spin unrestricted coupled pair/coupled cluster methods 
  Ingolf Harden          : AUTO-CI MPn and infrastructure                
  Benjamin Helmich-Paris : MC-RPA, TRAH-(SCF,CASSCF), AVAS, COSX integrals, SCF dyn. polar. 
  Lee Huntington         : MR-EOM, pCC                                   
  Robert Izsak           : Overlap fitted RIJCOSX, COSX-SCS-MP3, EOM     
  Riya Kayal             : Wick's Theorem for AUTO-CI, AUTO-CI UHF-CCSDT 
  Emily Kempfer          : AUTO-CI, RHF CISDT and CCSDT                  
  Christian Kollmar      : KDIIS, OOCD, Brueckner-CCSD(T), CCSD density, CASPT2, CASPT2-K, improved NEVPT2 
  Axel Koslowski         : Symmetry handling                             
  Simone Kossmann        : meta-GGA functionals, TD-DFT gradient, OOMP2, (MP2 Hessian; deprecated post 5.0) 
  Lucas Lang             : DCDCAS                                        
  Marvin Lechner         : AUTO-CI (C++ implementation), FIC-MRCC        
  Spencer Leger          : CASSCF response                               
  Dagmar Lenk            : GEPOL surface, SMD, ORCA-2-JSON               
  Dimitrios Liakos       : Extrapolation schemes; Compound Job, initial MDCI parallelization 
  Dimitrios Manganas     : Further ROCIS development; embedding schemes. LFT, Crystal Embedding 
  Dimitrios Pantazis     : SARC Basis sets                               
  Anastasios Papadopoulos: AUTO-CI, single reference methods and gradients 
  Taras Petrenko         : pre 6.0 DFT Hessian and TD-DFT gradient, (ASA, deprecated), ECA, 1-Electron XAS/XES, NRVS 
  Peter Pinski           : DLPNO-MP2, DLPNO-MP2 Gradient                 
  Christoph Reimann      : Effective Core Potentials                     
  Marius Retegan         : Local ZFS, SOC                                
  Christoph Riplinger    : Optimizer, TS searches, QM/MM, DLPNO-CCSD(T), (RO)-DLPNO pert. Triples 
  Michael Roemelt        : Original ROCIS implementation                 
  Masaaki Saitow         : Open-shell DLPNO-CCSD energy and density      
  Barbara Sandhoefer     : DKH picture change effects                    
  Kantharuban Sivalingam : CASSCF convergence/infrastructure, NEVPT2 and variants, FIC-MRCI 
  Bernardo de Souza      : ESD, SOC TD-DFT                               
  Georgi L. Stoychev     : AutoAux, RI-MP2 NMR, DLPNO-MP2 response, X2C  
  Van Anh Tran           : RI-MP2 g-tensors                              
  Willem Van den Heuvel  : Paramagnetic NMR                              
  Zikuan Wang            : NOTCH, Electric field optimization            
  Frank Wennmohs         : Technical directorship and infrastructure     
  Hang Xu                : AUTO-CI-Response properties                   
                                                                         
[FACCTs GmbH]                                                            
  Markus Bursch, Miquel Garcia-Rates, Christoph Riplinger, Bernardo de Souza, Georgi L. Stoychev 
                                                                 
  APM, Basis sets (HGBS, AHGBS, def-TZVP (Ac-Lr), def2-XVPD (La-Lu)), CI-OPT, improved COSX, DLPNO-Multilevel,           
  DOCKER, DRACO, updates on ESD, GOAT, IRC, LR-CPCM, MBIS, meta-GGA TD-DFT gradient, ML-optimized integration grids, 
  MM, NACMEs, nearIR, NEB, NEB-TS, NL-DFT gradient (VV10), 2- and 3-layer-ONIOM, interface openCOSMO-RS, QMMM,   
  Crystal-QMMM, SF, symmetry and pop. for TD-DFT, r2SCAN hybrids, SOLVATOR                                   
                                                                         
[Other institutions]                                                     
  V. Asgeirsson          : NEB                                           
  Christoph Bannwarth    : sTDA-DFT, sTD-DFT, PBEh-3c, B97-3c, D3        
  Sebastian Ehlert       : rSCAN, r2SCAN, r2SCAN-3c, D4, dhf basis sets  
  Marvin Friede          : D4 for Fr, Ra, Ac-Lr                          
  Lars Goerigk           : TD-DFT with DH, B97 family of functionals     
  Stefan Grimme          : VdW corrections, initial TS optimization, DFT functionals, gCP, sTDA/sTD-DF 
  Waldemar Hujo          : DFT-NL                                        
  H. Jonsson             : NEB                                           
  Holger Kruse           : gCP                                           
  Marcel Mueller         : wB97X-3c, vDZP basis set                      
  Hagen Neugebauer       : wr2SCAN                                       
  Tobias Risthaus        : range-separated hybrid DFT                    
  Lukas Wittmann         : regularized MP2, r2SCAN double-hybrids, wr2SCAN        
                                                                         
We gratefully acknowledge several colleagues who have allowed us to      
interface, adapt or use parts of their codes:                            
  Ed Valeev, F. Pavosevic, A. Kumar             : LibInt (2-el integral package), F12 methods 
  Garnet Chan, S. Sharma, J. Yang, R. Olivares  : DMRG                   
  Ulf Ekstrom                                   : XCFun DFT Library      
  Mihaly Kallay                                 : mrcc  (arbitrary order and MRCC methods)
  Frank Weinhold                                : gennbo (NPA and NBO analysis)           
  Simon Mueller                                 : openCOSMO-RS                            
  Christopher J. Cramer and Donald G. Truhlar   : smd solvation model                     
  S Lehtola, MJT Oliveira, MAL Marques          : LibXC Library                           
  Liviu Ungur et al                             : ANISO software                          


 Your calculation uses the libint2 library for the computation of 2-el integrals
 For citations please refer to: http://libint.valeyev.net

 Your ORCA version has been built with support for libXC version: 6.2.2
 For citations please refer to: https://libxc.gitlab.io

 This ORCA versions uses:
   CBLAS   interface :  Fast vector & matrix operations
   LAPACKE interface :  Fast linear algebra routines
   SCALAPACK package :  Parallel linear algebra routines
   Shared memory     :  Shared parallel matrices
   BLAS/LAPACK       :  OpenBLAS 0.3.27  USE64BITINT DYNAMIC_ARCH NO_AFFINITY SapphireRapids SINGLE_THREADED
        Core in use  :  SapphireRapids
   Copyright (c) 2011-2014, The OpenBLAS Project


Warning! Weird basis set assignment to AuxJK basis!


***************************************
The coordinates will be read from file: /g/data/kx58/rs2200/dhdft/inputs/compas3D-xyzs/hc_c32h18_0pent_1.xyz
***************************************


Your calculation utilizes the atom-pairwise dispersion correction
based on EEQ partial charges (D4)


================================================================================

----- Orbital basis set information -----
Your calculation utilizes the basis: def2-QZVPP
   F. Weigend and R. Ahlrichs, Phys. Chem. Chem. Phys. 7, 3297 (2005).

----- AuxC basis set information -----
Your calculation utilizes the auxiliary basis: def2-QZVPP/C
  H-La, Hf-Rn : A. Hellweg, C. Hattig, S. Hofener and W. Klopper, Theor. Chem. Acc. 117, 587 (2007).
        Ce-Lu : J. Chmela and M. E. Harding, Mol. Phys. (2018).

----- AuxJK basis set information -----
Your calculation utilizes the auxiliary basis: def2-QZVPP/C
  H-La, Hf-Rn : A. Hellweg, C. Hattig, S. Hofener and W. Klopper, Theor. Chem. Acc. 117, 587 (2007).
        Ce-Lu : J. Chmela and M. E. Harding, Mol. Phys. (2018).

================================================================================
                                        WARNINGS
                       Please study these warnings very carefully!
================================================================================


WARNING: No MP2 level density has been requested!
         To calculate MP2 level properties use
         %mp2 Density relaxed end
         or
         %mp2 Density unrelaxed end
         Otherwise for double-hybrid DFT only the energy is correct!

================================================================================
                                       INPUT FILE
================================================================================
NAME = compas3D_hc_c32h18_0pent_1_qz_riri.inp
|  1> ! RKS revDSD-PBEP86-D4/2021 defgrid3  RIJK NOPOP NoFrozencore NoUseSym
|  2> 
|  3> %basis
|  4> Basis "def2-QZVPP"
|  5> AuxJK "def2-QZVPP/C"
|  6> AuxC "def2-QZVPP/C"
|  7> end
|  8> 
|  9> %method
| 10> ScalHFX 0.69
| 11> ScalDFX 0.31
| 12> ScalDFC 0.4038
| 13> ScalLDAC 0.4038
| 14> 
| 15> D4S6 0.4612
| 16> D4S8 0.0
| 17> D4A1 0.44
| 18> D4A2 3.60
| 19> end
| 20> 
| 21> %mp2
| 22> PS 0.5979
| 23> PT 0.0571
| 24> 
| 25> end
| 26> 
| 27> %pal
| 28> nprocs 104
| 29> end
| 30> 
| 31> *XYZFILE 0 1 /g/data/kx58/rs2200/dhdft/inputs/compas3D-xyzs/hc_c32h18_0pent_1.xyz
| 32> 
| 33>                          ****END OF INPUT****
================================================================================

                       ****************************
                       * Single Point Calculation *
                       ****************************

---------------------------------
CARTESIAN COORDINATES (ANGSTROEM)
---------------------------------
  C      2.352992   -0.038843   -0.506814
  C      1.418719   -1.105196   -0.477612
  C      0.015097   -0.811954   -0.299607
  C     -0.402583    0.514416   -0.101844
  C      0.595503    1.501591    0.301594
  C      1.930813    1.281577   -0.051290
  C      3.676943   -0.309185   -0.882676
  C      4.077929   -1.596686   -1.187806
  C      3.174407   -2.650788   -1.105043
  C      1.846064   -2.432352   -0.743539
  C      0.883650   -3.539420   -0.637865
  C     -0.488198   -3.261499   -0.478117
  C     -0.950840   -1.866285   -0.429393
  C     -2.284178   -1.539004   -0.502630
  C     -2.716953   -0.195911   -0.556829
  C     -1.771019    0.853040   -0.397930
  C      0.280454    2.654022    1.124802
  C      1.244549    3.685899    1.275693
  C      2.534423    3.516666    0.698033
  C      2.878017    2.337310    0.115380
  C      1.302037   -4.881396   -0.678372
  C      0.401479   -5.923870   -0.569758
  C     -0.958158   -5.647812   -0.406837
  C     -1.388155   -4.335404   -0.359670
  C     -4.077721    0.116039   -0.826972
  C     -4.479657    1.411539   -1.010959
  C     -3.523296    2.451890   -0.956626
  C     -2.213020    2.180463   -0.658535
  C     -0.910837    2.758578    1.890814
  C     -1.167889    3.858976    2.671761
  C     -0.246942    4.925118    2.734354
  C      0.941934    4.828870    2.056405
  H      4.408568    0.494509   -0.936709
  H      5.109753   -1.789009   -1.487690
  H      3.518105   -3.654855   -1.347944
  H     -3.041485   -2.315179   -0.605545
  H      3.267014    4.320649    0.796383
  H      3.901039    2.200715   -0.229290
  H      2.360772   -5.115545   -0.778934
  H      0.756567   -6.955798   -0.598237
  H     -1.678522   -6.461708   -0.304427
  H     -2.448441   -4.137748   -0.207812
  H     -4.791745   -0.706257   -0.913685
  H     -5.524368    1.640869   -1.229957
  H     -3.827429    3.479734   -1.163988
  H     -1.492581    2.995090   -0.644552
  H     -1.628157    1.941084    1.877068
  H     -2.089482    3.901565    3.255600
  H     -0.466817    5.803598    3.344269
  H      1.690640    5.620896    2.131337

----------------------------
CARTESIAN COORDINATES (A.U.)
----------------------------
  NO LB      ZA    FRAG     MASS         X           Y           Z
   0 C     6.0000    0    12.011    4.446510   -0.073402   -0.957740
   1 C     6.0000    0    12.011    2.680990   -2.088517   -0.902555
   2 C     6.0000    0    12.011    0.028529   -1.534371   -0.566175
   3 C     6.0000    0    12.011   -0.760771    0.972106   -0.192458
   4 C     6.0000    0    12.011    1.125338    2.837596    0.569930
   5 C     6.0000    0    12.011    3.648708    2.421830   -0.096924
   6 C     6.0000    0    12.011    6.948416   -0.584275   -1.668015
   7 C     6.0000    0    12.011    7.706170   -3.017300   -2.244628
   8 C     6.0000    0    12.011    5.998760   -5.009262   -2.088229
   9 C     6.0000    0    12.011    3.488555   -4.596479   -1.405085
  10 C     6.0000    0    12.011    1.669857   -6.688535   -1.205390
  11 C     6.0000    0    12.011   -0.922561   -6.163340   -0.903511
  12 C     6.0000    0    12.011   -1.796827   -3.526767   -0.811435
  13 C     6.0000    0    12.011   -4.316471   -2.908296   -0.949834
  14 C     6.0000    0    12.011   -5.134296   -0.370219   -1.052254
  15 C     6.0000    0    12.011   -3.346740    1.612012   -0.751978
  16 C     6.0000    0    12.011    0.529980    5.015375    2.125568
  17 C     6.0000    0    12.011    2.351856    6.965341    2.410711
  18 C     6.0000    0    12.011    4.789365    6.645535    1.319091
  19 C     6.0000    0    12.011    5.438664    4.416875    0.218037
  20 C     6.0000    0    12.011    2.460494   -9.224501   -1.281938
  21 C     6.0000    0    12.011    0.758686  -11.194492   -1.076687
  22 C     6.0000    0    12.011   -1.810656  -10.672818   -0.768811
  23 C     6.0000    0    12.011   -2.623232   -8.192727   -0.679679
  24 C     6.0000    0    12.011   -7.705775    0.219282   -1.562751
  25 C     6.0000    0    12.011   -8.465325    2.667422   -1.910436
  26 C     6.0000    0    12.011   -6.658065    4.633401   -1.807760
  27 C     6.0000    0    12.011   -4.182001    4.120478   -1.244450
  28 C     6.0000    0    12.011   -1.721233    5.212958    3.573121
  29 C     6.0000    0    12.011   -2.206990    7.292407    5.048896
  30 C     6.0000    0    12.011   -0.466652    9.307124    5.167180
  31 C     6.0000    0    12.011    1.779998    9.125242    3.886042
  32 H     1.0000    0     1.008    8.330987    0.934486   -1.770124
  33 H     1.0000    0     1.008    9.656035   -3.380737   -2.811326
  34 H     1.0000    0     1.008    6.648256   -6.906675   -2.547245
  35 H     1.0000    0     1.008   -5.747574   -4.375055   -1.144315
  36 H     1.0000    0     1.008    6.173761    8.164844    1.504946
  37 H     1.0000    0     1.008    7.371896    4.158748   -0.433295
  38 H     1.0000    0     1.008    4.461212   -9.666979   -1.471972
  39 H     1.0000    0     1.008    1.429704  -13.144554   -1.130503
  40 H     1.0000    0     1.008   -3.171946  -12.210859   -0.575284
  41 H     1.0000    0     1.008   -4.626882   -7.819210   -0.392709
  42 H     1.0000    0     1.008   -9.055085   -1.334632   -1.726615
  43 H     1.0000    0     1.008  -10.439542    3.100794   -2.324281
  44 H     1.0000    0     1.008   -7.232793    6.575744   -2.199618
  45 H     1.0000    0     1.008   -2.820570    5.659900   -1.218027
  46 H     1.0000    0     1.008   -3.076771    3.668117    3.547145
  47 H     1.0000    0     1.008   -3.948548    7.372890    6.152192
  48 H     1.0000    0     1.008   -0.882156   10.967211    6.319753
  49 H     1.0000    0     1.008    3.194846   10.621954    4.027644

--------------------------------
INTERNAL COORDINATES (ANGSTROEM)
--------------------------------
 C      0   0   0     0.000000000000     0.00000000     0.00000000
 C      1   0   0     1.418036329370     0.00000000     0.00000000
 C      2   1   0     1.444932928649   119.33644808     0.00000000
 C      3   2   1     1.404572925646   119.85853507   357.33655476
 C      4   3   2     1.460634533376   118.28859389   342.55134181
 C      5   4   3     1.398565789532   118.45079970    26.35044798
 C      1   2   3     1.402570630398   118.84833730   189.68135581
 C      7   1   2     1.382589783738   120.82391858   358.38292458
 C      8   7   1     1.390802617778   120.28076929   358.95817381
 C      9   8   7     1.393877578995   121.04815251     1.39940257
 C     10   9   8     1.470716676091   121.62045155   180.67690978
 C     11  10   9     1.408803603353   119.79310392   189.98003418
 C      3   2   1     1.435789505936   119.56166985   172.54818805
 C     13   3   2     1.374869486051   118.84540811   191.80273322
 C     14  13   3     1.412136353131   121.71274740     4.94173409
 C     15  14  13     1.421386197303   119.58078149   353.57850051
 C      5   4   3     1.450870300750   123.03622521   210.48216844
 C     17   5   4     1.420217790531   119.33973947   191.09502942
 C     18  17   5     1.423413948629   119.05505547   355.27419130
 C     19  18  17     1.359566852632   120.40225239   354.13327075
 C     11  10   9     1.406267113170   121.43744710    10.66261330
 C     21  11  10     1.381866499706   121.58428169   179.52992595
 C     22  21  11     1.396912738393   119.62952388   359.57707921
 C     23  22  21     1.381859623351   119.63930272     0.17315495
 C     15  14  13     1.421963544469   120.61217838   170.80054000
 C     25  15  14     1.368840651621   120.94115775   186.46063991
 C     26  25  15     1.414181518903   119.50521558     1.20844499
 C     27  26  25     1.370895869291   120.60129709   356.85368286
 C     17   5   4     1.420168763920   123.13865990    16.66601952
 C     29  17   5     1.373618472331   121.50746371   179.20457403
 C     30  29  17     1.410220129592   120.57474179     0.00000000
 C     31  30  29     1.371971381616   119.40173692   356.95449167
 H      7   1   2     1.088171857370   120.37151098   178.52601800
 H      8   7   1     1.091594873625   119.92343306   179.42705868
 H      9   8   7     1.088706333462   118.72604901   180.19622629
 H     14  13   3     1.089290293039   120.63999329   179.74689071
 H     19  18  17     1.092131581531   118.93312242   178.66634595
 H     20  19  18     1.088131407336   118.83187225   186.03740031
 H     21  11  10     1.088970563251   119.80860863     0.68511409
 H     22  21  11     1.091683996517   119.93898358   180.39014149
 H     23  22  21     1.091713948113   120.38776682   180.93880806
 H     24  23  22     1.089189916168   118.68699733   181.47327808
 H     25  15  14     1.092483635584   118.38581257     4.68661954
 H     26  25  15     1.091774638971   120.44656859   179.25487182
 H     27  26  25     1.091768801689   119.79499320   176.20699696
 H     28  27  26     1.087586665310   119.18442276   178.65773517
 H     29  17   5     1.087673793590   119.41038197     0.50831229
 H     30  29  17     1.091794493186   119.55346429   180.61109144
 H     31  30  29     1.091819240094   120.10385633   178.95869622
 H     32  31  30     1.092464949894   120.60531338   183.06783083

---------------------------
INTERNAL COORDINATES (A.U.)
---------------------------
 C      0   0   0     0.000000000000     0.00000000     0.00000000
 C      1   0   0     2.679700310461     0.00000000     0.00000000
 C      2   1   0     2.730527517032   119.33644808     0.00000000
 C      3   2   1     2.654258164592   119.85853507   357.33655476
 C      4   3   2     2.760199249829   118.28859389   342.55134181
 C      5   4   3     2.642906322487   118.45079970    26.35044798
 C      1   2   3     2.650474374934   118.84833730   189.68135581
 C      7   1   2     2.612716046822   120.82391858   358.38292458
 C      8   7   1     2.628236053941   120.28076929   358.95817381
 C      9   8   7     2.634046888513   121.04815251     1.39940257
 C     10   9   8     2.779251738403   121.62045155   180.67690978
 C     11  10   9     2.662252986818   119.79310392   189.98003418
 C      3   2   1     2.713248952177   119.56166985   172.54818805
 C     13   3   2     2.598126798521   118.84540811   191.80273322
 C     14  13   3     2.668550971172   121.71274740     4.94173409
 C     15  14  13     2.686030643438   119.58078149   353.57850051
 C      5   4   3     2.741747524257   123.03622521   210.48216844
 C     17   5   4     2.683822674627   119.33973947   191.09502942
 C     18  17   5     2.689862538113   119.05505547   355.27419130
 C     19  18  17     2.569209012232   120.40225239   354.13327075
 C     11  10   9     2.657459715032   121.43744710    10.66261330
 C     21  11  10     2.611349238086   121.58428169   179.52992595
 C     22  21  11     2.639782508550   119.62952388   359.57707921
 C     23  22  21     2.611336243657   119.63930272     0.17315495
 C     15  14  13     2.687121671467   120.61217838   170.80054000
 C     25  15  14     2.586733952542   120.94115775   186.46063991
 C     26  25  15     2.672415774380   119.50521558     1.20844499
 C     27  26  25     2.590617751083   120.60129709   356.85368286
 C     17   5   4     2.683730027758   123.13865990    16.66601952
 C     29  17   5     2.595762725202   121.50746371   179.20457403
 C     30  29  17     2.664929833472   120.57474179     0.00000000
 C     31  30  29     2.592650174831   119.40173692   356.95449167
 H      7   1   2     2.056346797069   120.37151098   178.52601800
 H      8   7   1     2.062815360343   119.92343306   179.42705868
 H      9   8   7     2.057356810508   118.72604901   180.19622629
 H     14  13   3     2.058460334182   120.63999329   179.74689071
 H     19  18  17     2.063829591301   118.93312242   178.66634595
 H     20  19  18     2.056270357583   118.83187225   186.03740031
 H     21  11  10     2.057856132447   119.80860863     0.68511409
 H     22  21  11     2.062983778202   119.93898358   180.39014149
 H     23  22  21     2.063040378515   120.38776682   180.93880806
 H     24  23  22     2.058270649386   118.68699733   181.47327808
 H     25  15  14     2.064494877044   118.38581257     4.68661954
 H     26  25  15     2.063155067616   120.44656859   179.25487182
 H     27  26  25     2.063144036751   119.79499320   176.20699696
 H     28  27  26     2.055240944341   119.18442276   178.65773517
 H     29  17   5     2.055405592927   119.41038197     0.50831229
 H     30  29  17     2.063192586645   119.55346429   180.61109144
 H     31  30  29     2.063239351524   120.10385633   178.95869622
 H     32  31  30     2.064459566207   120.60531338   183.06783083

---------------------
BASIS SET INFORMATION
---------------------
There are 2 groups of distinct atoms

 Group   1 Type C   : 15s8p3d2f1g contracted to 7s4p3d2f1g pattern {8211111/5111/111/11/1}
 Group   2 Type H   : 7s3p2d1f contracted to 4s3p2d1f pattern {4111/111/11/1}

Atom   0C    basis set group =>   1
Atom   1C    basis set group =>   1
Atom   2C    basis set group =>   1
Atom   3C    basis set group =>   1
Atom   4C    basis set group =>   1
Atom   5C    basis set group =>   1
Atom   6C    basis set group =>   1
Atom   7C    basis set group =>   1
Atom   8C    basis set group =>   1
Atom   9C    basis set group =>   1
Atom  10C    basis set group =>   1
Atom  11C    basis set group =>   1
Atom  12C    basis set group =>   1
Atom  13C    basis set group =>   1
Atom  14C    basis set group =>   1
Atom  15C    basis set group =>   1
Atom  16C    basis set group =>   1
Atom  17C    basis set group =>   1
Atom  18C    basis set group =>   1
Atom  19C    basis set group =>   1
Atom  20C    basis set group =>   1
Atom  21C    basis set group =>   1
Atom  22C    basis set group =>   1
Atom  23C    basis set group =>   1
Atom  24C    basis set group =>   1
Atom  25C    basis set group =>   1
Atom  26C    basis set group =>   1
Atom  27C    basis set group =>   1
Atom  28C    basis set group =>   1
Atom  29C    basis set group =>   1
Atom  30C    basis set group =>   1
Atom  31C    basis set group =>   1
Atom  32H    basis set group =>   2
Atom  33H    basis set group =>   2
Atom  34H    basis set group =>   2
Atom  35H    basis set group =>   2
Atom  36H    basis set group =>   2
Atom  37H    basis set group =>   2
Atom  38H    basis set group =>   2
Atom  39H    basis set group =>   2
Atom  40H    basis set group =>   2
Atom  41H    basis set group =>   2
Atom  42H    basis set group =>   2
Atom  43H    basis set group =>   2
Atom  44H    basis set group =>   2
Atom  45H    basis set group =>   2
Atom  46H    basis set group =>   2
Atom  47H    basis set group =>   2
Atom  48H    basis set group =>   2
Atom  49H    basis set group =>   2
---------------------------------
AUXILIARY/C BASIS SET INFORMATION
---------------------------------
There are 2 groups of distinct atoms

 Group   1 Type C   : 9s8p7d5f3g1h contracted to 9s8p7d5f3g1h pattern {111111111/11111111/1111111/11111/111/1}
 Group   2 Type H   : 6s4p3d2f1g contracted to 6s4p3d2f1g pattern {111111/1111/111/11/1}

Atom   0C    basis set group =>   1
Atom   1C    basis set group =>   1
Atom   2C    basis set group =>   1
Atom   3C    basis set group =>   1
Atom   4C    basis set group =>   1
Atom   5C    basis set group =>   1
Atom   6C    basis set group =>   1
Atom   7C    basis set group =>   1
Atom   8C    basis set group =>   1
Atom   9C    basis set group =>   1
Atom  10C    basis set group =>   1
Atom  11C    basis set group =>   1
Atom  12C    basis set group =>   1
Atom  13C    basis set group =>   1
Atom  14C    basis set group =>   1
Atom  15C    basis set group =>   1
Atom  16C    basis set group =>   1
Atom  17C    basis set group =>   1
Atom  18C    basis set group =>   1
Atom  19C    basis set group =>   1
Atom  20C    basis set group =>   1
Atom  21C    basis set group =>   1
Atom  22C    basis set group =>   1
Atom  23C    basis set group =>   1
Atom  24C    basis set group =>   1
Atom  25C    basis set group =>   1
Atom  26C    basis set group =>   1
Atom  27C    basis set group =>   1
Atom  28C    basis set group =>   1
Atom  29C    basis set group =>   1
Atom  30C    basis set group =>   1
Atom  31C    basis set group =>   1
Atom  32H    basis set group =>   2
Atom  33H    basis set group =>   2
Atom  34H    basis set group =>   2
Atom  35H    basis set group =>   2
Atom  36H    basis set group =>   2
Atom  37H    basis set group =>   2
Atom  38H    basis set group =>   2
Atom  39H    basis set group =>   2
Atom  40H    basis set group =>   2
Atom  41H    basis set group =>   2
Atom  42H    basis set group =>   2
Atom  43H    basis set group =>   2
Atom  44H    basis set group =>   2
Atom  45H    basis set group =>   2
Atom  46H    basis set group =>   2
Atom  47H    basis set group =>   2
Atom  48H    basis set group =>   2
Atom  49H    basis set group =>   2
----------------------------------
AUXILIARY/JK BASIS SET INFORMATION
----------------------------------
There are 2 groups of distinct atoms

 Group   1 Type C   : 9s8p7d5f3g1h contracted to 9s8p7d5f3g1h pattern {111111111/11111111/1111111/11111/111/1}
 Group   2 Type H   : 6s4p3d2f1g contracted to 6s4p3d2f1g pattern {111111/1111/111/11/1}

Atom   0C    basis set group =>   1
Atom   1C    basis set group =>   1
Atom   2C    basis set group =>   1
Atom   3C    basis set group =>   1
Atom   4C    basis set group =>   1
Atom   5C    basis set group =>   1
Atom   6C    basis set group =>   1
Atom   7C    basis set group =>   1
Atom   8C    basis set group =>   1
Atom   9C    basis set group =>   1
Atom  10C    basis set group =>   1
Atom  11C    basis set group =>   1
Atom  12C    basis set group =>   1
Atom  13C    basis set group =>   1
Atom  14C    basis set group =>   1
Atom  15C    basis set group =>   1
Atom  16C    basis set group =>   1
Atom  17C    basis set group =>   1
Atom  18C    basis set group =>   1
Atom  19C    basis set group =>   1
Atom  20C    basis set group =>   1
Atom  21C    basis set group =>   1
Atom  22C    basis set group =>   1
Atom  23C    basis set group =>   1
Atom  24C    basis set group =>   1
Atom  25C    basis set group =>   1
Atom  26C    basis set group =>   1
Atom  27C    basis set group =>   1
Atom  28C    basis set group =>   1
Atom  29C    basis set group =>   1
Atom  30C    basis set group =>   1
Atom  31C    basis set group =>   1
Atom  32H    basis set group =>   2
Atom  33H    basis set group =>   2
Atom  34H    basis set group =>   2
Atom  35H    basis set group =>   2
Atom  36H    basis set group =>   2
Atom  37H    basis set group =>   2
Atom  38H    basis set group =>   2
Atom  39H    basis set group =>   2
Atom  40H    basis set group =>   2
Atom  41H    basis set group =>   2
Atom  42H    basis set group =>   2
Atom  43H    basis set group =>   2
Atom  44H    basis set group =>   2
Atom  45H    basis set group =>   2
Atom  46H    basis set group =>   2
Atom  47H    basis set group =>   2
Atom  48H    basis set group =>   2
Atom  49H    basis set group =>   2


           ************************************************************
           *        Program running with 104 parallel MPI-processes   *
           *              working on a common directory               *
           ************************************************************
------------------------------------------------------------------------------
                             ORCA STARTUP CALCULATIONS
                           -- RI-GTO INTEGRALS CHOSEN --
------------------------------------------------------------------------------
------------------------------------------------------------------------------
                   ___                                                        
                  /   \      - P O W E R E D   B Y -                         
                 /     \                                                     
                 |  |  |   _    _      __       _____    __    __             
                 |  |  |  | |  | |    /  \     |  _  \  |  |  /  |          
                  \  \/   | |  | |   /    \    | | | |  |  | /  /          
                 / \  \   | |__| |  /  /\  \   | |_| |  |  |/  /          
                |  |  |   |  __  | /  /__\  \  |    /   |      \           
                |  |  |   | |  | | |   __   |  |    \   |  |\   \          
                \     /   | |  | | |  |  |  |  | |\  \  |  | \   \       
                 \___/    |_|  |_| |__|  |__|  |_| \__\ |__|  \__/        
                                                                              
                      - O R C A' S   B I G   F R I E N D -                    
                                      &                                       
                       - I N T E G R A L  F E E D E R -                       
                                                                              
 v1 FN, 2020, v2 2021, v3 2022-2024                                           
------------------------------------------------------------------------------


----------------------
SHARK INTEGRAL PACKAGE
----------------------

Number of atoms                             ...     50
Number of basis functions                   ...   2364
Number of shells                            ...    724
Maximum angular momentum                    ...      4
Integral batch strategy                     ... SHARK/LIBINT Hybrid
RI-J (if used) integral strategy            ... SPLIT-RIJ (Revised 2003 algorithm where possible)
Printlevel                                  ...      1
Contraction scheme used                     ... SEGMENTED contraction
Prescreening option                         ... SCHWARTZ
   Thresh                                   ... 1.000e-10
   Tcut                                     ... 1.000e-11
   Tpresel                                  ... 1.000e-11 
Coulomb Range Separation                    ... NOT USED
Exchange Range Separation                   ... NOT USED
Multipole approximations                    ... NOT USED
Finite Nucleus Model                        ... NOT USED
CABS basis                                  ... NOT available
Auxiliary Coulomb fitting basis             ... NOT available
Auxiliary J/K fitting basis                 ... AVAILABLE
   # of basis functions in Aux-JK           ...   5520
   # of shells in Aux-JK                    ...   1344
   Maximum angular momentum in Aux-JK       ...      5
Auxiliary Correlation fitting basis         ... AVAILABLE
   # of basis functions in Aux-C            ...   5520
   # of shells in Aux-C                     ...   1344
   Maximum angular momentum in Aux-C        ...      5
Auxiliary 'external' fitting basis          ... NOT available

Checking pre-screening integrals            ... done (  0.0 sec) Dimension = 724
Check shell pair data                       ... done (  0.1 sec)
Shell pair information
Shell pair cut-off parameter TPreSel        ...   1.0e-11
Total number of shell pairs                 ...    262450
Shell pairs after pre-screening             ...    140941
Total number of primitive shell pairs       ...    677059
Primitive shell pairs kept                  ...    244874
          la=0 lb=0:  21472 shell pairs
          la=1 lb=0:  32265 shell pairs
          la=1 lb=1:  11385 shell pairs
          la=2 lb=0:  19037 shell pairs
          la=2 lb=1:  14520 shell pairs
          la=2 lb=2:   4485 shell pairs
          la=3 lb=0:  11263 shell pairs
          la=3 lb=1:   8592 shell pairs
          la=3 lb=2:   5073 shell pairs
          la=3 lb=3:   1506 shell pairs
          la=4 lb=0:   4468 shell pairs
          la=4 lb=1:   3429 shell pairs
          la=4 lb=2:   2022 shell pairs
          la=4 lb=3:   1170 shell pairs
          la=4 lb=4:    254 shell pairs

Calculating one electron integrals          ... done (  0.8 sec)
Calculating RI/JK V-Matrix + Cholesky decomp... done (  1.8 sec)
Calculating RI/C V-Matrix + Cholesky decomp.... done (  1.6 sec)
Calculating Nuclear repulsion               ... done (  0.0 sec) ENN=   2867.851208728628 Eh

Diagonalization of the overlap matrix:
Smallest eigenvalue                        ... 1.823e-07
Time for diagonalization                   ...    0.871 sec
Threshold for overlap eigenvalues          ... 1.000e-07
Number of eigenvalues below threshold      ... 0

IMPORTANT:
Smallest eigenvalue of S below the DiffSThresh (1.000e-06) while
Thresh>1e-12 and/or TCut>1e-13! In order to avoid SCF convergence issues,
Thresh will be set to at least 1e-12 and TCut to at least 1e-13.
This can be turned off by adding %SCF DiffSThresh -1 END to the input.

Time for construction of square roots      ...    0.719 sec
Total time needed                          ...    1.657 sec

-------------------
DFT GRID GENERATION
-------------------

General Integration Accuracy     IntAcc      ... 4.959
Radial Grid Type                 RadialGrid  ... OptM3 with GC (2021)
Angular Grid (max. ang.)         AngularGrid ... 6 (Lebedev-590)
Angular grid pruning method      GridPruning ... 4 (adaptive)
Weight generation scheme         WeightScheme... mBecke (2022)
Basis function cutoff            BFCut       ... 1.0000e-10
Integration weight cutoff        WCut        ... 1.0000e-14
Partially contracted basis set               ... off
Rotationally invariant grid construction     ... off
Angular grids for H and He will be reduced by one unit
Diffuse basis detected: some atoms will have their outermost
                        angular grid increased by 1.

Total number of grid points                  ...   615682
Total number of batches                      ...     9647
Average number of points per batch           ...       63
Average number of grid points per atom       ...    12314
Initializing property integral containers    ... done (  0.1 sec)

SHARK setup successfully completed in  15.2 seconds

Maximum memory used throughout the entire STARTUP-calculation: 279.0 MB


           ************************************************************
           *        Program running with 104 parallel MPI-processes   *
           *              working on a common directory               *
           ************************************************************
-------------------------------------------------------------------------------
                                 ORCA GUESS
                   Start orbitals & Density for SCF / CASSCF
-------------------------------------------------------------------------------

------------
SCF SETTINGS
------------
Hamiltonian:
 Density Functional     Method          .... DFT(GTOs)
 Exchange Functional    Exchange        .... PBE
   PBE kappa parameter   XKappa         ....  0.804000
   PBE mue parameter    XMuePBE         ....  0.219520
 Correlation Functional Correlation     .... P86
 LDA part of GGA corr.  LDAOpt          .... VWN-5
 Gradients option       PostSCFGGA      .... off
 Hybrid DFT is turned on
   Fraction HF Exchange ScalHFX         ....  0.690000
   Scaling of DF-GGA-X  ScalDFX         ....  0.310000
   Scaling of DF-GGA-C  ScalDFC         ....  0.403800
   Scaling of DF-LDA-C  ScalLDAC        ....  0.403800
   Perturbative correction              ....  1.000000
 RI-approximation to the Coulomb term is turned on
   Number of AuxJK basis functions      .... 5520
   RI-JK (J+K treated both via RI)      .... on


General Settings:
 Integral files         IntName         .... compas3D_hc_c32h18_0pent_1_qz_riri
 Hartree-Fock type      HFTyp           .... RHF
 Total Charge           Charge          ....    0
 Multiplicity           Mult            ....    1
 Number of Electrons    NEL             ....  210
 Basis Dimension        Dim             .... 2364
 Nuclear Repulsion      ENuc            ....   2867.8512087286 Eh

Convergence Acceleration:
 AO-DIIS                CNVDIIS         .... on
   Start iteration      DIISMaxIt       ....    12
   Startup error        DIISStart       ....  0.200000
   # of expansion vecs  DIISMaxEq       ....     5
   Bias factor          DIISBfac        ....   1.050
   Max. coefficient     DIISMaxC        ....  10.000
 MO-DIIS                CNVKDIIS        .... off
 Trust-Rad. Augm. Hess. CNVTRAH         .... auto
   Auto Start mean grad. ratio tolernc. ....  1.125000
   Auto Start start iteration           ....    50
   Auto Start num. interpolation iter.  ....    10
   Max. Number of Micro iterations      ....    24
   Max. Number of Macro iterations      .... Maxiter - #DIIS iter
   Number of Davidson start vectors     ....     2
   Converg. threshold    (grad. norm)   ....   5.000e-05
   Grad. Scal. Fac. for Micro threshold ....   0.100
   Minimum threshold for Micro iter.    ....   1.000e-02
   NR start threshold (gradient norm)   ....   1.000e-04
   Initial trust radius                 ....   0.400
   Minimum AH scaling param. (alpha)    ....   1.000
   Maximum AH scaling param. (alpha)    .... 1000.000
   Quad. conv. algorithm                .... NR
   White noise on init. David. guess    .... on
   Maximum white noise                  ....   0.010
   Pseudo random numbers                .... off
   Inactive MOs                         .... canonical
   Orbital update algorithm             .... Taylor
   Preconditioner                       .... Diag
   Full preconditioner red. dimension   ....   250
 SOSCF                  CNVSOSCF        .... on
   Start iteration      SOSCFMaxIt      ....   150
   Startup grad/error   SOSCFStart      ....  0.003300
   Hessian update       SOSCFHessUp     .... L-BFGS
 Level Shifting         CNVShift        .... on
   Level shift para.    LevelShift      ....    0.2500
   Turn off err/grad.   ShiftErr        ....    0.0010
 Zerner damping         CNVZerner       .... off
 Static damping         CNVDamp         .... on
   Fraction old density DampFac         ....    0.7000
   Max. Damping (<1)    DampMax         ....    0.9800
   Min. Damping (>=0)   DampMin         ....    0.0000
   Turn off err/grad.   DampErr         ....    0.1000

SCF Procedure:
 Maximum # iterations   MaxIter         ....   125
 SCF integral mode      SCFMode         .... Direct
   Integral package                     .... SHARK and LIBINT hybrid scheme
 Reset frequency        DirectResetFreq ....    20
 Integral Threshold     Thresh          ....  1.000e-12 Eh
 Primitive CutOff       TCut            ....  1.000e-13 Eh

Convergence Tolerance:
 Convergence Check Mode ConvCheckMode   .... Total+1el-Energy
 Convergence forced     ConvForced      .... 0
 Energy Change          TolE            ....  1.000e-06 Eh
 1-El. energy change                    ....  1.000e-03 Eh
 Orbital Gradient       TolG            ....  5.000e-05
 Orbital Rotation angle TolX            ....  5.000e-05
 DIIS Error             TolErr          ....  1.000e-06

------------------------------
INITIAL GUESS: MODEL POTENTIAL
------------------------------
Loading Hartree-Fock densities                     ... done
Calculating cut-offs                               ... done
Initializing the effective Hamiltonian             ... done
Setting up the integral package (SHARK)            ... done
Starting the Coulomb interaction                   ... done (   0.6 sec)
Making the grid                                    ... done (   0.5 sec)
Mapping shells                                     ... done
Starting the XC term evaluation                    ... done (   0.2 sec)
  promolecular density results
     # of electrons  =    209.995460708
     EX              =   -169.093995600
     EC              =      0.264335009
     EX+EC           =   -168.829660590
Transforming the Hamiltonian                       ... done (   0.4 sec)
Diagonalizing the Hamiltonian                      ... done (   0.6 sec)
Back transforming the eigenvectors                 ... done (   0.3 sec)
Now organizing SCF variables                       ... done
                      ------------------
                      INITIAL GUESS DONE (   3.3 sec)
                      ------------------
             **** ENERGY FILE WAS UPDATED (compas3D_hc_c32h18_0pent_1_qz_riri.en.tmp) ****
Finished Guess after  21.3 sec
Maximum memory used throughout the entire GUESS-calculation: 316.8 MB


           ************************************************************
           *        Program running with 104 parallel MPI-processes   *
           *              working on a common directory               *
           ************************************************************

-------------------------------------------------------------------------------------------
                                      ORCA LEAN-SCF
                              memory conserving SCF solver
-------------------------------------------------------------------------------------------

----------------------------------------D-I-I-S--------------------------------------------
Iteration    Energy (Eh)           Delta-E    RMSDP     MaxDP     DIISErr   Damp  Time(sec)
-------------------------------------------------------------------------------------------
    1    -1225.0179347917601262     0.00e+00  8.86e-04  2.78e-01  1.46e-01  0.700  32.3
    2    -1224.7963081229463569     2.22e-01  1.23e-03  4.15e-01  1.29e-01  0.700  33.9
                               ***Turning on AO-DIIS***
    3    -1224.9351958882093641    -1.39e-01  2.83e-04  3.50e-02  7.58e-02  0.700  33.1
    4    -1225.2116902962889071    -2.76e-01  1.35e-03  4.78e-01  4.11e-02  0.000  33.6
    5    -1225.6498470880160312    -4.38e-01  3.86e-04  1.20e-01  3.18e-02  0.000  35.2
    6    -1225.6679982648206533    -1.82e-02  1.81e-04  5.94e-02  1.56e-02  0.000  32.4
    7    -1225.6726329419798276    -4.63e-03  7.37e-05  2.42e-02  5.10e-03  0.000  33.8
                              *** Initializing SOSCF ***
---------------------------------------S-O-S-C-F--------------------------------------
Iteration    Energy (Eh)           Delta-E    RMSDP     MaxDP     MaxGrad    Time(sec)
--------------------------------------------------------------------------------------
    8    -1225.6732178131655928    -5.85e-04  8.08e-05  2.62e-02  1.36e-03    35.6
    9    -1225.6732672932666901    -4.95e-05  3.08e-05  7.29e-03  1.29e-04    31.9
   10    -1225.6732724567027617    -5.16e-06  3.69e-05  1.14e-02  1.04e-04    31.4
   11    -1225.6732733226863274    -8.66e-07  8.47e-06  2.44e-03  4.60e-05    31.8
                 **** Energy Check signals convergence ****

               *****************************************************
               *                     SUCCESS                       *
               *           SCF CONVERGED AFTER  11 CYCLES          *
               *****************************************************

             **** ENERGY FILE WAS UPDATED (compas3D_hc_c32h18_0pent_1_qz_riri.en.tmp) ****

----------------
TOTAL SCF ENERGY
----------------

Total Energy       :      -1225.67327332268633 Eh          -33352.26536 eV

Components:
Nuclear Repulsion  :       2867.85120872862763 Eh           78038.19877 eV
Electronic Energy  :      -4093.52448205131395 Eh         -111390.46414 eV
One Electron Energy:      -7362.77354797804310 Eh         -200351.25390 eV
Two Electron Energy:       3269.24906592672914 Eh           88960.78976 eV

Virial components:
Potential Energy   :      -2447.69551271197724 Eh          -66605.18104 eV
Kinetic Energy     :       1222.02223938929114 Eh           33252.91568 eV
Virial Ratio       :          2.00298769843601

DFT components:
N(Alpha)           :      105.000007045131 electrons
N(Beta)            :      105.000007045131 electrons
N(Total)           :      210.000014090261 electrons
E(X)               :      -53.283016708754 Eh       
E(C)               :       -3.131739431937 Eh       
E(XC)              :      -56.414756140691 Eh       

---------------
SCF CONVERGENCE
---------------

  Last Energy change         ...    8.6598e-07  Tolerance :   1.0000e-06
  Last MAX-Density change    ...    2.4367e-03  Tolerance :   1.0000e-05
  Last RMS-Density change    ...    8.4720e-06  Tolerance :   1.0000e-06
  Last DIIS Error            ...    1.3626e-03  Tolerance :   1.0000e-06
  Last Orbital Gradient      ...    4.5995e-05  Tolerance :   5.0000e-05
  Last Orbital Rotation      ...    1.0542e-04  Tolerance :   5.0000e-05


----------------
ORBITAL ENERGIES
----------------

  NO   OCC          E(Eh)            E(eV) 
   0   2.0000     -10.843413      -295.0643 
   1   2.0000     -10.842617      -295.0426 
   2   2.0000     -10.840242      -294.9780 
   3   2.0000     -10.840066      -294.9732 
   4   2.0000     -10.839844      -294.9671 
   5   2.0000     -10.839408      -294.9553 
   6   2.0000     -10.839162      -294.9486 
   7   2.0000     -10.838644      -294.9345 
   8   2.0000     -10.838258      -294.9240 
   9   2.0000     -10.837937      -294.9152 
  10   2.0000     -10.837577      -294.9055 
  11   2.0000     -10.836565      -294.8779 
  12   2.0000     -10.833407      -294.7920 
  13   2.0000     -10.833208      -294.7866 
  14   2.0000     -10.826693      -294.6093 
  15   2.0000     -10.826503      -294.6041 
  16   2.0000     -10.826414      -294.6017 
  17   2.0000     -10.826034      -294.5914 
  18   2.0000     -10.825415      -294.5745 
  19   2.0000     -10.825333      -294.5723 
  20   2.0000     -10.825221      -294.5692 
  21   2.0000     -10.824817      -294.5582 
  22   2.0000     -10.824739      -294.5561 
  23   2.0000     -10.824713      -294.5554 
  24   2.0000     -10.824666      -294.5541 
  25   2.0000     -10.824547      -294.5509 
  26   2.0000     -10.823670      -294.5270 
  27   2.0000     -10.823597      -294.5250 
  28   2.0000     -10.822334      -294.4907 
  29   2.0000     -10.822305      -294.4899 
  30   2.0000     -10.821151      -294.4585 
  31   2.0000     -10.821116      -294.4575 
  32   2.0000      -1.099093       -29.9078 
  33   2.0000      -1.070626       -29.1332 
  34   2.0000      -1.061279       -28.8789 
  35   2.0000      -1.046822       -28.4855 
  36   2.0000      -1.018003       -27.7013 
  37   2.0000      -1.009324       -27.4651 
  38   2.0000      -0.980020       -26.6677 
  39   2.0000      -0.964223       -26.2378 
  40   2.0000      -0.952438       -25.9172 
  41   2.0000      -0.936092       -25.4723 
  42   2.0000      -0.930666       -25.3247 
  43   2.0000      -0.914357       -24.8809 
  44   2.0000      -0.893897       -24.3242 
  45   2.0000      -0.891764       -24.2661 
  46   2.0000      -0.887315       -24.1451 
  47   2.0000      -0.866375       -23.5753 
  48   2.0000      -0.796561       -21.6755 
  49   2.0000      -0.785830       -21.3835 
  50   2.0000      -0.783604       -21.3229 
  51   2.0000      -0.772163       -21.0116 
  52   2.0000      -0.755969       -20.5710 
  53   2.0000      -0.748211       -20.3599 
  54   2.0000      -0.736833       -20.0502 
  55   2.0000      -0.713944       -19.4274 
  56   2.0000      -0.703749       -19.1500 
  57   2.0000      -0.697139       -18.9701 
  58   2.0000      -0.660323       -17.9683 
  59   2.0000      -0.643942       -17.5225 
  60   2.0000      -0.637796       -17.3553 
  61   2.0000      -0.633369       -17.2349 
  62   2.0000      -0.617327       -16.7983 
  63   2.0000      -0.609662       -16.5897 
  64   2.0000      -0.597764       -16.2660 
  65   2.0000      -0.592583       -16.1250 
  66   2.0000      -0.579490       -15.7687 
  67   2.0000      -0.569243       -15.4899 
  68   2.0000      -0.560397       -15.2492 
  69   2.0000      -0.555203       -15.1078 
  70   2.0000      -0.547197       -14.8900 
  71   2.0000      -0.541660       -14.7393 
  72   2.0000      -0.536353       -14.5949 
  73   2.0000      -0.533159       -14.5080 
  74   2.0000      -0.528090       -14.3700 
  75   2.0000      -0.523411       -14.2427 
  76   2.0000      -0.520619       -14.1668 
  77   2.0000      -0.516545       -14.0559 
  78   2.0000      -0.511259       -13.9121 
  79   2.0000      -0.506525       -13.7832 
  80   2.0000      -0.489470       -13.3191 
  81   2.0000      -0.486597       -13.2410 
  82   2.0000      -0.479631       -13.0514 
  83   2.0000      -0.475473       -12.9383 
  84   2.0000      -0.467606       -12.7242 
  85   2.0000      -0.461822       -12.5668 
  86   2.0000      -0.460494       -12.5307 
  87   2.0000      -0.449279       -12.2255 
  88   2.0000      -0.440734       -11.9930 
  89   2.0000      -0.437058       -11.8929 
  90   2.0000      -0.431394       -11.7388 
  91   2.0000      -0.423591       -11.5265 
  92   2.0000      -0.415822       -11.3151 
  93   2.0000      -0.408555       -11.1173 
  94   2.0000      -0.402964       -10.9652 
  95   2.0000      -0.373514       -10.1638 
  96   2.0000      -0.361485        -9.8365 
  97   2.0000      -0.341230        -9.2853 
  98   2.0000      -0.340490        -9.2652 
  99   2.0000      -0.323404        -8.8003 
 100   2.0000      -0.302647        -8.2355 
 101   2.0000      -0.279733        -7.6119 
 102   2.0000      -0.273086        -7.4311 
 103   2.0000      -0.259646        -7.0653 
 104   2.0000      -0.236206        -6.4275 
 105   0.0000      -0.004070        -0.1107 
 106   0.0000       0.011026         0.3000 
 107   0.0000       0.025088         0.6827 
 108   0.0000       0.029301         0.7973 
 109   0.0000       0.057528         1.5654 
 110   0.0000       0.069396         1.8884 
 111   0.0000       0.073122         1.9898 
 112   0.0000       0.076113         2.0711 
 113   0.0000       0.077440         2.1073 
 114   0.0000       0.083940         2.2841 
 115   0.0000       0.086951         2.3660 
*Only the first 10 virtual orbitals were printed.
-------
TIMINGS
-------

Total SCF time: 0 days 0 hours 6 min 24 sec 

Total time                  ....     384.766 sec
Sum of individual times     ....     384.597 sec  (100.0%)

SCF preparation             ....      17.057 sec  (  4.4%)
Fock matrix formation       ....     326.881 sec  ( 85.0%)
  Startup                   ....       3.338 sec  (  1.0% of F)
  RI-JK                     ....     297.722 sec  ( 91.1% of F)
  XC integration            ....      17.712 sec  (  5.4% of F)
    XC Preparation          ....       0.000 sec  (  0.0% of XC)
    Basis function eval.    ....       1.202 sec  (  6.8% of XC)
    Density eval.           ....       3.696 sec  ( 20.9% of XC)
    XC-Functional eval.     ....       0.034 sec  (  0.2% of XC)
    XC-Potential eval.      ....       4.759 sec  ( 26.9% of XC)
Diagonalization             ....       0.000 sec  (  0.0%)
Density matrix formation    ....       5.449 sec  (  1.4%)
Total Energy calculation    ....       2.832 sec  (  0.7%)
Population analysis         ....       0.000 sec  (  0.0%)
Orbital Transformation      ....       3.796 sec  (  1.0%)
Orbital Orthonormalization  ....       0.000 sec  (  0.0%)
DIIS solution               ....      22.952 sec  (  6.0%)
SOSCF solution              ....       5.423 sec  (  1.4%)
Finished LeanSCF after 385.6 sec

Maximum memory used throughout the entire LEANSCF-calculation: 1025.0 MB


           ************************************************************
           *        Program running with 104 parallel MPI-processes   *
           *              working on a common directory               *
           ************************************************************

------------------------------------------------------------------------------
                                ORCA  MP2 
------------------------------------------------------------------------------


-------------
RI-MP2 ENERGY
-------------
Dimension of the orbital basis            ... 2364
Dimension of the AuxC basis               ... 5520
Memory devoted to MP2                     ... 4096 MB   
Data format for matrix containers         ... DOUBLE
Compression type for matrix containers    ... UNCOMPRESSED
Scaling for aa/bb pairs                   ...   5.710e-02
Scaling for ab pairs                      ...   5.979e-01
Overall scaling of the MP2 energy         ...   1.000e+00

-----------------------
SHARK RI TRANSFORMATION
-----------------------

Number of basis functions                ...   2364
Number of aux functions                  ...   5520
Number of operators                      ...      1
Generation of IJK                        ... NO
Generation of IAK                        ... YES
Generation of ABK                        ... NO
Orbital Range Operator  0:    0- 104 to  105-2363

Aux basis identifier                     ...   AUXC
Contraction scheme used                  ... SEGMENTED
Do orthogonalization                     ... YES
All operator combinations                ... NO
Transpose (ia|K)                         ... NO
Integral generator used                  ... LIBINT
Starting integral generation + trafo... 
Half trafo (segmented) done. Total time = 11.6 sec. integrals=  2.6 sec trafo=  8.3 sec
Integral generation and half transformation done ( 11.6 sec)

Reading or making V^(-1/2)          ... done (  0.6 sec)
Sorting IAK integrals               ... done ( 13.3 sec)

SHARK RI integral transformation done. Total time = 25.7 sec.

Opening buffers                              ... done

Starting loop over batches of integrals:

Operator 0  - window                       ... (  0-104)x(105-2363)
Operator 0  - Memory available             ...  4096 MB
Operator 0  - Memory needed per MO         ...  95.1 MB
Operator 0  - Number of orbitals per batch ... 2
Operator 0  - Number of batches            ... 1

OPERATOR  0   PASS   0:  MOs     0 ...    1 +    2 ...    3 +    4 ...    5 +    6 ...    7
                            +    8 ...    9 +   10 ...   11 +   12 ...   13 +   14 ...   15
                            +   16 ...   17 +   18 ...   19 +   20 ...   21 +   22 ...   23
                            +   24 ...   25 +   26 ...   27 +   28 ...   29 +   30 ...   31
                            +   32 ...   33 +   34 ...   35 +   36 ...   37 +   38 ...   39
                            +   40 ...   41 +   42 ...   43 +   44 ...   45 +   46 ...   47
                            +   48 ...   49 +   50 ...   51 +   52 ...   53 +   54 ...   55
                            +   56 ...   57 +   58 ...   59 +   60 ...   61 +   62 ...   63
                            +   64 ...   65 +   66 ...   67 +   68 ...   69 +   70 ...   71
                            +   72 ...   73 +   74 ...   75 +   76 ...   77 +   78 ...   79
                            +   80 ...   81 +   82 ...   83 +   84 ...   85 +   86 ...   87
                            +   88 ...   89 +   90 ...   91 +   92 ...   93 +   94 ...   95
                            +   96 ...   97 +   98 ...   99 +  100 ...  101 +  102 ...  103
                            +  104 ...  104
  Reading integrals       ... ok
Time spent in pair loops =   232.955 sec

-----------------------------------------------
 RI-MP2 CORRELATION ENERGY:     -3.159462804 Eh
-----------------------------------------------


-------
TIMINGS
-------

Total time                :  263.538 sec
Integral trafo            :   25.964 sec (  9.9%)
I/O of integrals          :    0.226 sec (  0.1%)
K(i,j) operators          :    3.117 sec (  1.2%)
T(i,j) pair energies      :    0.365 sec (  0.1%)
V**(-1/2)                 :    4.617 sec (  1.8%)


---------------------------------------
MP2 TOTAL ENERGY:    -1228.832736126 Eh
---------------------------------------

Maximum memory used throughout the entire MP2-calculation: 769.1 MB


-------------------------------------------------------------------------------
                          DFT DISPERSION CORRECTION                            
                                                                               
                                DFTD4 V3.4.0                                   
-------------------------------------------------------------------------------
The REV-DSD-PBEP86-2021 functional is recognized
A user input s6-coefficient scaling factor has been recognized
A user input a1-coefficient scaling factor has been recognized
A user input s8-coefficient scaling factor has been recognized
A user input a2-coefficient scaling factor has been recognized
A user input s9-coefficient scaling factor has been recognized
Active option DFTDOPT                   ...         5   

-------------------------   ----------------
Dispersion correction           -0.053305010
-------------------------   ----------------


-------------------------   --------------------
FINAL SINGLE POINT ENERGY     -1228.886041135838
-------------------------   --------------------



           ************************************************************
           *        Program running with 104 parallel MPI-processes   *
           *              working on a common directory               *
           ************************************************************

------------------------------------------------------------------------------
                              ORCA PROPERTY CALCULATIONS
------------------------------------------------------------------------------

GBWName                                 ... compas3D_hc_c32h18_0pent_1_qz_riri.gbw
Number of atoms                         ...     50
Number of basis functions               ...   2364
Max core memory                         ...   1024 MB

Electric properties:
Dipole moment                           ... YES
Quadrupole moment                       ...  NO
Static polarizability (Dipole/Dipole)   ...  NO
Static polarizability (Dipole/Quad.)    ...  NO
Static polarizability (Quad./Quad.)     ...  NO
Static polarizability (Velocity)        ...  NO

Atomic electric properties:
Dipole moment                           ...  NO
Quadrupole moment                       ...  NO
Static polarizability                   ...  NO

Choice of electric origin               ... Center of mass
Position of electric origin             ...     0.102052    -0.065056    -0.049493

General magnetic properties:
Magnetizability                         ...  NO

EPR properties:
g-Tensor (aka g-matrix)                 ...  NO
Zero-Field splitting spin-orbit         ...  NO
Zero-field splitting spin-spin          ...  NO
Hyperfine couplings                     ...  NO (   0 nuclei)
Quadrupole couplings                    ...  NO (   0 nuclei)
Contact density                         ...  NO (   0 nuclei)

NMR properties:
Chemical shifts                         ...  NO (   0 nuclei)
Spin-rotation constants                 ...  NO (   0 nuclei)
Spin-spin couplings                     ...  NO (   0 nuclei,    0 pairs)

Choice of magnetic origin               ... GIAO
Position of magnetic origin             ...     0.000000     0.000000     0.000000

Properties with geometric perturbations:
SCF Hessian                             ...  NO
IR spectrum                             ...  NO
VCD spectrum                            ...  NO
X-ray spectroscopy properties:
SCF XES/XAS/RIXS spectra                ...  NO


-------------
DIPOLE MOMENT
-------------

Method             : SCF
Type of density    : Electron Density
Multiplicity       :   1
Irrep              :   0
Energy             : -1225.6732733226863274 Eh
Relativity type    : 
Basis              : AO
                                X                 Y                 Z
Electronic contribution:      2.795083669      -1.790536755      -1.322127371
Nuclear contribution   :     -2.766333750       1.765913913       1.339078238
                        -----------------------------------------
Total Dipole Moment    :      0.028749919      -0.024622842       0.016950866
                        -----------------------------------------
Magnitude (a.u.)       :      0.041474981
Magnitude (Debye)      :      0.105421025



--------------------
Rotational spectrum 
--------------------
 
Rotational constants in cm-1:             0.007542             0.004038             0.002851 
Rotational constants in MHz :           226.101394           121.065901            85.467474 

Dipole components along the rotational axes: 
x,y,z [a.u.] :    -0.022607     0.027374     0.021442 
x,y,z [Debye]:    -0.057463     0.069579     0.054501 

 

Dipole moment calculation done in   0.5 sec 

Maximum memory used throughout the entire PROP-calculation: 355.7 MB

--------------------------------
SUGGESTED CITATIONS FOR THIS RUN
--------------------------------

Below you find a list of papers that are relevant to this ORCA run
We neither can nor want to force you to cite these papers, but we appreciate if you do
You receive ORCA, which is the product of decades of hard work by many enthusiastic individuals, for free
The only thing we kindly ask in return is that you cite our papers,
We deeply appreciate it, if you show your appreciation for ORCA by not just citing the generic ORCA reference.

Please note that relegating all ORCA citations to the supporting information does *not* help us.
SI sections are not indexed - citations you put there will not count into any citation statistics
But we need these citations in order to attract the funding resources that allow us to do what we are doing

Therefore, if you are a happy ORCA user, please consider citing a few of the papers listed below in the main body of your paper

In addition to the list printed below, the program has created the file compas3D_hc_c32h18_0pent_1_qz_riri.bibtex that contains the list in bibtex format
You can import this file easily into all common literature databanks and citation aid programs


List of essential papers. We consider these as the minimum necessary citations

  1. Neese,F.
     Software update: the ORCA program system, version 5.0
     WIRES Comput. Molec. Sci., 2022 12(1)e1606
     doi.org/10.1002/wcms.1606

List of papers to cite with high priority. The work reported in these papers was absolutely
necessary for this run to complete.
Our perspective: the developers of density functionals and basis sets usually get cited in chemistry papers
Good! But without the algorithms to do something with them, the functionals or basis sets would not do anything.
Hence, in our opinion, the algorithm design and method developments papers are equally worthy of getting cited

  1. Neese,F.
     An improvement of the resolution of the identity approximation for the formation of the Coulomb matrix
     J. Comp. Chem., 2003 24(14)1740-1747
     doi.org/10.1002/jcc.10318
  2. Kossmann,S.; Neese,F.
     Comparison of two efficient approximate Hartee-Fock approaches
     Chem. Phys. Lett., 2009 481 240-243
     doi.org/10.1016/j.cplett.2009.09.073
  3. Neese,F.
     The SHARK Integral Generation and Digestion System
     J. Comp. Chem., 2022  1-16
     doi.org/10.1002/jcc.26942
  4. Caldeweyher,E.; Bannwarth,C.; Grimme,S.
     Extension of the D3 dispersion coefficient model
     J. Chem. Phys., 2017 147 034112
     doi.org/10.1063/1.4993215
  5. Caldeweyher,E.; Ehlert,S.; Hansen,A.; Neugebauer,H.; Spicher,S.; Bannwarth,C.; Grimme,S.
     A generally applicable atomic-charge dependent London dispersion correction
     J. Chem. Phys., 2019 150 154122
     doi.org/10.1063/1.5090222
  6. Caldeweyher,E.; Mewes,J.; Ehlert,S.; Grimme,S.
     Extension and evaluation of the D4 London-dispersion model for periodic systems
     Phys. Chem. Chem. Phys., 2020 22(16)8499-8512
     doi.org/10.1039/D0CP00502A
  7. Wittmann,L.; Gordiy,I.; Friede,M.; Helmich-Paris,B.; Grimme,S.; Hansen,A.; Bursch,M.
     Extension of the D3 and D4 London Dispersion Corrections to the full Actinides Series
     Phys. Chem. Chem. Phys., 2024 26(32)21379-21394
     doi.org/https://doi.org/10.1039/D4CP01514B 

List of suggested additional citations. These are papers that are important in the 'surrounding' of 
of this run, or papers that preceded the highly important papers. If you like your results we are grateful for a citation.

  1. Neese,F.
     The ORCA program system
     WIRES Comput. Molec. Sci., 2012 2(1)73-78
     doi.org/10.1002/wcms.81
  2. Neese,F.
     Software update: the ORCA program system, version 4.0
     WIRES Comput. Molec. Sci., 2018 8(1)1-6
     doi.org/10.1002/wcms.1327
  3. Neese,F.; Wennmohs,F.; Becker,U.; Riplinger,C.
     The ORCA quantum chemistry program package
     J. Chem. Phys., 2020 152 Art. No. L224108
     doi.org/10.1063/5.0004608

List of optional additional citations

  1. Neese,F.
     Approximate second-order SCF convergence for spin unrestricted wavefunctions
     Chem. Phys. Lett., 2000 325(1-3)93-98
     doi.org/10.1016/s0009-2614(00)00662-x

Timings for individual modules:

Sum of individual times          ...      744.517 sec (=  12.409 min)
Startup calculation              ...       32.189 sec (=   0.536 min)   4.3 %
SCF iterations                   ...      410.288 sec (=   6.838 min)  55.1 %
Property calculations            ...       18.677 sec (=   0.311 min)   2.5 %
MP2 module                       ...      283.364 sec (=   4.723 min)  38.1 %
                             ****ORCA TERMINATED NORMALLY****
TOTAL RUN TIME: 0 days 0 hours 12 minutes 55 seconds 101 msec
