
                                 *****************
                                 * O   R   C   A *
                                 *****************

                                            #,                                       
                                            ###                                      
                                            ####                                     
                                            #####                                    
                                            ######                                   
                                           ########,                                 
                                     ,,################,,,,,                         
                               ,,#################################,,                 
                          ,,##########################################,,             
                       ,#########################################, ''#####,          
                    ,#############################################,,   '####,        
                  ,##################################################,,,,####,       
                ,###########''''           ''''###############################       
              ,#####''   ,,,,##########,,,,          '''####'''          '####       
            ,##' ,,,,###########################,,,                        '##       
           ' ,,###''''                  '''############,,,                           
         ,,##''                                '''############,,,,        ,,,,,,###''
      ,#''                                            '''#######################'''  
     '                                                          ''''####''''         
             ,#######,   #######,   ,#######,      ##                                
            ,#'     '#,  ##    ##  ,#'     '#,    #''#        ,####,   ,####,        
            ##       ##  ##   ,#'  ##            #'  '#       #'       #'  '#        
            ##       ##  #######   ##           ,######,      #####,   #    #        
            '#,     ,#'  ##    ##  '#,     ,#' ,#      #,     #,   #   #,  ,#        
             '#######'   ##     ##  '#######'  #'      '#     '####' # '####'        



                #########################################################
                #                        -***-                          #
                #          Department of theory and spectroscopy        #
                #                                                       #
                #                      Frank Neese                      #
                #                                                       #
                #     Directorship, Architecture, Infrastructure        #
                #                    SHARK, DRIVERS                     #
                #        Core code/Algorithms in most modules           #
                #                                                       #
                #        Max Planck Institute fuer Kohlenforschung      #
                #                Kaiser Wilhelm Platz 1                 #
                #                 D-45470 Muelheim/Ruhr                 #
                #                      Germany                          #
                #                                                       #
                #                  All rights reserved                  #
                #                        -***-                          #
                #########################################################


                         Program Version 6.0.1  -  RELEASE   -


 With contributions from (in alphabetic order):
[Max-Planck-Institut fuer Kohlenforschung]                               
  Daniel Aravena         : Magnetic Suceptibility                        
  Michael Atanasov       : Ab Initio Ligand Field Theory (pilot matlab implementation)
  Alexander A. Auer      : GIAO ZORA, VPT2 properties, NMR spectrum      
  Ute Becker             : All parallelization in ORCA, NUMFREQ, NUMCALC 
  Giovanni Bistoni       : ED, misc. LED, open-shell LED, HFLD           
  Martin Brehm           : Molecular dynamics                            
  Dmytro Bykov           : pre 5.0 version of the SCF Hessian            
  Marcos Casanova-Páez   : Triplet and SCS-CIS(D). UHF-(DLPNO)-IP/EA/STEOM-CCSD. UHF-CVS-IP/STEOM-CCSD   
  Vijay G. Chilkuri      : MRCI spin determinant printing, contributions to CSF-ICE 
  Pauline Colinet        : FMM embedding                                 
  Dipayan Datta          : RHF DLPNO-CCSD density                        
  Achintya Kumar Dutta   : EOM-CC, STEOM-CC                              
  Nicolas Foglia         : Exact transition moments, OPA infrastructure, MCD improvements    
  Dmitry Ganyushin       : Spin-Orbit,Spin-Spin,Magnetic field MRCI      
  Miquel Garcia-Rates    : C-PCM and meta-GGA Hessian, CCSD/C-PCM, Gaussian charge scheme 
  Tiago L. C. Gouveia    : GS-ROHF, GS-ROCIS                             
  Yang Guo               : DLPNO-NEVPT2, F12-NEVPT2, CIM, IAO-localization        
  Andreas Hansen         : Spin unrestricted coupled pair/coupled cluster methods 
  Ingolf Harden          : AUTO-CI MPn and infrastructure                
  Benjamin Helmich-Paris : MC-RPA, TRAH-(SCF,CASSCF), AVAS, COSX integrals, SCF dyn. polar. 
  Lee Huntington         : MR-EOM, pCC                                   
  Robert Izsak           : Overlap fitted RIJCOSX, COSX-SCS-MP3, EOM     
  Riya Kayal             : Wick's Theorem for AUTO-CI, AUTO-CI UHF-CCSDT 
  Emily Kempfer          : AUTO-CI, RHF CISDT and CCSDT                  
  Christian Kollmar      : KDIIS, OOCD, Brueckner-CCSD(T), CCSD density, CASPT2, CASPT2-K, improved NEVPT2 
  Axel Koslowski         : Symmetry handling                             
  Simone Kossmann        : meta-GGA functionals, TD-DFT gradient, OOMP2, (MP2 Hessian; deprecated post 5.0) 
  Lucas Lang             : DCDCAS                                        
  Marvin Lechner         : AUTO-CI (C++ implementation), FIC-MRCC        
  Spencer Leger          : CASSCF response                               
  Dagmar Lenk            : GEPOL surface, SMD, ORCA-2-JSON               
  Dimitrios Liakos       : Extrapolation schemes; Compound Job, initial MDCI parallelization 
  Dimitrios Manganas     : Further ROCIS development; embedding schemes. LFT, Crystal Embedding 
  Dimitrios Pantazis     : SARC Basis sets                               
  Anastasios Papadopoulos: AUTO-CI, single reference methods and gradients 
  Taras Petrenko         : pre 6.0 DFT Hessian and TD-DFT gradient, (ASA, deprecated), ECA, 1-Electron XAS/XES, NRVS 
  Peter Pinski           : DLPNO-MP2, DLPNO-MP2 Gradient                 
  Christoph Reimann      : Effective Core Potentials                     
  Marius Retegan         : Local ZFS, SOC                                
  Christoph Riplinger    : Optimizer, TS searches, QM/MM, DLPNO-CCSD(T), (RO)-DLPNO pert. Triples 
  Michael Roemelt        : Original ROCIS implementation                 
  Masaaki Saitow         : Open-shell DLPNO-CCSD energy and density      
  Barbara Sandhoefer     : DKH picture change effects                    
  Kantharuban Sivalingam : CASSCF convergence/infrastructure, NEVPT2 and variants, FIC-MRCI 
  Bernardo de Souza      : ESD, SOC TD-DFT                               
  Georgi L. Stoychev     : AutoAux, RI-MP2 NMR, DLPNO-MP2 response, X2C  
  Van Anh Tran           : RI-MP2 g-tensors                              
  Willem Van den Heuvel  : Paramagnetic NMR                              
  Zikuan Wang            : NOTCH, Electric field optimization            
  Frank Wennmohs         : Technical directorship and infrastructure     
  Hang Xu                : AUTO-CI-Response properties                   
                                                                         
[FACCTs GmbH]                                                            
  Markus Bursch, Miquel Garcia-Rates, Christoph Riplinger, Bernardo de Souza, Georgi L. Stoychev 
                                                                 
  APM, Basis sets (HGBS, AHGBS, def-TZVP (Ac-Lr), def2-XVPD (La-Lu)), CI-OPT, improved COSX, DLPNO-Multilevel,           
  DOCKER, DRACO, updates on ESD, GOAT, IRC, LR-CPCM, MBIS, meta-GGA TD-DFT gradient, ML-optimized integration grids, 
  MM, NACMEs, nearIR, NEB, NEB-TS, NL-DFT gradient (VV10), 2- and 3-layer-ONIOM, interface openCOSMO-RS, QMMM,   
  Crystal-QMMM, SF, symmetry and pop. for TD-DFT, r2SCAN hybrids, SOLVATOR                                   
                                                                         
[Other institutions]                                                     
  V. Asgeirsson          : NEB                                           
  Christoph Bannwarth    : sTDA-DFT, sTD-DFT, PBEh-3c, B97-3c, D3        
  Sebastian Ehlert       : rSCAN, r2SCAN, r2SCAN-3c, D4, dhf basis sets  
  Marvin Friede          : D4 for Fr, Ra, Ac-Lr                          
  Lars Goerigk           : TD-DFT with DH, B97 family of functionals     
  Stefan Grimme          : VdW corrections, initial TS optimization, DFT functionals, gCP, sTDA/sTD-DF 
  Waldemar Hujo          : DFT-NL                                        
  H. Jonsson             : NEB                                           
  Holger Kruse           : gCP                                           
  Marcel Mueller         : wB97X-3c, vDZP basis set                      
  Hagen Neugebauer       : wr2SCAN                                       
  Tobias Risthaus        : range-separated hybrid DFT                    
  Lukas Wittmann         : regularized MP2, r2SCAN double-hybrids, wr2SCAN        
                                                                         
We gratefully acknowledge several colleagues who have allowed us to      
interface, adapt or use parts of their codes:                            
  Ed Valeev, F. Pavosevic, A. Kumar             : LibInt (2-el integral package), F12 methods 
  Garnet Chan, S. Sharma, J. Yang, R. Olivares  : DMRG                   
  Ulf Ekstrom                                   : XCFun DFT Library      
  Mihaly Kallay                                 : mrcc  (arbitrary order and MRCC methods)
  Frank Weinhold                                : gennbo (NPA and NBO analysis)           
  Simon Mueller                                 : openCOSMO-RS                            
  Christopher J. Cramer and Donald G. Truhlar   : smd solvation model                     
  S Lehtola, MJT Oliveira, MAL Marques          : LibXC Library                           
  Liviu Ungur et al                             : ANISO software                          


 Your calculation uses the libint2 library for the computation of 2-el integrals
 For citations please refer to: http://libint.valeyev.net

 Your ORCA version has been built with support for libXC version: 6.2.2
 For citations please refer to: https://libxc.gitlab.io

 This ORCA versions uses:
   CBLAS   interface :  Fast vector & matrix operations
   LAPACKE interface :  Fast linear algebra routines
   SCALAPACK package :  Parallel linear algebra routines
   Shared memory     :  Shared parallel matrices
   BLAS/LAPACK       :  OpenBLAS 0.3.27  USE64BITINT DYNAMIC_ARCH NO_AFFINITY SapphireRapids SINGLE_THREADED
        Core in use  :  SapphireRapids
   Copyright (c) 2011-2014, The OpenBLAS Project


Warning! Weird basis set assignment to AuxC basis!


***************************************
The coordinates will be read from file: /scratch/kx58/rs2200/dhdft/inputs/compas3x-xyzs/hc_c24h14_0pent_1.xyz
***************************************


Your calculation utilizes the atom-pairwise dispersion correction
based on EEQ partial charges (D4)


================================================================================

----- Orbital basis set information -----
Your calculation utilizes the basis: def2-TZVP
   F. Weigend and R. Ahlrichs, Phys. Chem. Chem. Phys. 7, 3297 (2005).

----- AuxC basis set information -----
Your calculation utilizes the auxiliary basis: def2/JK
   H-Ba, Hf-Rn: F. Weigend, J. Comput. Chem. 29, 167 (2008).

----- AuxJK basis set information -----
Your calculation utilizes the auxiliary basis: def2/JK
   H-Ba, Hf-Rn: F. Weigend, J. Comput. Chem. 29, 167 (2008).

================================================================================
                                        WARNINGS
                       Please study these warnings very carefully!
================================================================================


WARNING: No MP2 level density has been requested!
         To calculate MP2 level properties use
         %mp2 Density relaxed end
         or
         %mp2 Density unrelaxed end
         Otherwise for double-hybrid DFT only the energy is correct!

================================================================================
                                       INPUT FILE
================================================================================
NAME = compas3x_hc_c24h14_0pent_1_tz_jkjk.inp
|  1> ! RKS revDSD-PBEP86-D4/2021 defgrid3  RIJK NOPOP NoFrozencore NoUseSym
|  2> 
|  3> %basis
|  4> Basis "def2-TZVP"
|  5> AuxJK "def2/JK"
|  6> AuxC "def2/JK"
|  7> end
|  8> 
|  9> %method
| 10> ScalHFX 0.69
| 11> ScalDFX 0.31
| 12> ScalDFC 0.4038
| 13> ScalLDAC 0.4038
| 14> 
| 15> D4S6 0.4612
| 16> D4S8 0.0
| 17> D4A1 0.44
| 18> D4A2 3.60
| 19> end
| 20> 
| 21> %mp2
| 22> PS 0.5979
| 23> PT 0.0571
| 24> 
| 25> end
| 26> 
| 27> %pal
| 28> nprocs 104
| 29> end
| 30> 
| 31> *XYZFILE 0 1 /scratch/kx58/rs2200/dhdft/inputs/compas3x-xyzs/hc_c24h14_0pent_1.xyz
| 32> 
| 33>                          ****END OF INPUT****
================================================================================

                       ****************************
                       * Single Point Calculation *
                       ****************************

---------------------------------
CARTESIAN COORDINATES (ANGSTROEM)
---------------------------------
  C      1.797600    0.544505    0.134254
  C      0.655153   -0.289472    0.088532
  C     -0.655305    0.289422    0.087789
  C     -0.808216    1.695616    0.132844
  C      0.355055    2.547316   -0.032654
  C      1.643959    1.977934   -0.032017
  C      3.047450   -0.038068    0.337574
  C      3.182122   -1.405820    0.458285
  C      2.080356   -2.227331    0.337080
  C      0.808013   -1.695664    0.133795
  C     -0.355070   -2.547369   -0.032991
  C     -1.643976   -1.977990   -0.033799
  C     -1.797803   -0.544555    0.132255
  C     -3.047882    0.038025    0.334146
  C     -3.182690    1.405782    0.454660
  C     -2.080788    2.227288    0.334675
  C      0.231116    3.929013   -0.228540
  C      1.331931    4.733541   -0.404817
  C      2.602581    4.172209   -0.404237
  C      2.749004    2.816698   -0.227356
  C     -0.230908   -3.929068   -0.228720
  C     -1.331524   -4.733603   -0.406204
  C     -2.602176   -4.172277   -0.407031
  C     -2.748801   -2.816763   -0.230339
  H      3.928635    0.575438    0.431383
  H      4.155898   -1.836021    0.642154
  H      2.220253   -3.291926    0.430535
  H     -3.929172   -0.575477    0.426982
  H     -4.156673    1.835988    0.637413
  H     -2.220792    3.291886    0.427937
  H     -0.745767    4.383599   -0.266685
  H      1.207597    5.795702   -0.556491
  H      3.471634    4.795519   -0.555480
  H      3.742941    2.400632   -0.264559
  H      0.746020   -4.383648   -0.265780
  H     -1.207018   -5.795766   -0.557725
  H     -3.471059   -4.795594   -0.559218
  H     -3.742698   -2.400704   -0.268648

----------------------------
CARTESIAN COORDINATES (A.U.)
----------------------------
  NO LB      ZA    FRAG     MASS         X           Y           Z
   0 C     6.0000    0    12.011    3.396971    1.028965    0.253704
   1 C     6.0000    0    12.011    1.238059   -0.547022    0.167300
   2 C     6.0000    0    12.011   -1.238348    0.546927    0.165898
   3 C     6.0000    0    12.011   -1.527307    3.204250    0.251038
   4 C     6.0000    0    12.011    0.670956    4.813730   -0.061708
   5 C     6.0000    0    12.011    3.106633    3.737754   -0.060503
   6 C     6.0000    0    12.011    5.758846   -0.071938    0.637923
   7 C     6.0000    0    12.011    6.013338   -2.656615    0.866034
   8 C     6.0000    0    12.011    3.931303   -4.209045    0.636990
   9 C     6.0000    0    12.011    1.526924   -3.204341    0.252836
  10 C     6.0000    0    12.011   -0.670985   -4.813829   -0.062343
  11 C     6.0000    0    12.011   -3.106664   -3.737859   -0.063872
  12 C     6.0000    0    12.011   -3.397355   -1.029059    0.249925
  13 C     6.0000    0    12.011   -5.759662    0.071857    0.631445
  14 C     6.0000    0    12.011   -6.014412    2.656542    0.859182
  15 C     6.0000    0    12.011   -3.932120    4.208965    0.632444
  16 C     6.0000    0    12.011    0.436745    7.424759   -0.431879
  17 C     6.0000    0    12.011    2.516986    8.945096   -0.764994
  18 C     6.0000    0    12.011    4.918166    7.884333   -0.763897
  19 C     6.0000    0    12.011    5.194866    5.322787   -0.429640
  20 C     6.0000    0    12.011   -0.436352   -7.424862   -0.432218
  21 C     6.0000    0    12.011   -2.516216   -8.945213   -0.767614
  22 C     6.0000    0    12.011   -4.917401   -7.884461   -0.769177
  23 C     6.0000    0    12.011   -5.194481   -5.322910   -0.435277
  24 H     1.0000    0     1.008    7.424044    1.087420    0.815195
  25 H     1.0000    0     1.008    7.853508   -3.469577    1.213494
  26 H     1.0000    0     1.008    4.195670   -6.220838    0.813593
  27 H     1.0000    0     1.008   -7.425059   -1.087494    0.806878
  28 H     1.0000    0     1.008   -7.854974    3.469515    1.204536
  29 H     1.0000    0     1.008   -4.196688    6.220763    0.808684
  30 H     1.0000    0     1.008   -1.409296    8.283802   -0.503962
  31 H     1.0000    0     1.008    2.282028   10.952290   -1.051616
  32 H     1.0000    0     1.008    6.560437    9.062218   -1.049705
  33 H     1.0000    0     1.008    7.073133    4.536536   -0.499945
  34 H     1.0000    0     1.008    1.409773   -8.283894   -0.502251
  35 H     1.0000    0     1.008   -2.280933  -10.952410   -1.053947
  36 H     1.0000    0     1.008   -6.559350   -9.062359   -1.056770
  37 H     1.0000    0     1.008   -7.072674   -4.536672   -0.507671

--------------------------------
INTERNAL COORDINATES (ANGSTROEM)
--------------------------------
 C      0   0   0     0.000000000000     0.00000000     0.00000000
 C      1   0   0     1.415200702073     0.00000000     0.00000000
 C      2   1   0     1.432626302058   120.02130500     0.00000000
 C      3   2   1     1.415201139192   120.02149535     0.00000000
 C      4   3   2     1.451200094487   119.53247804     9.66849795
 C      5   4   3     1.409067263596   119.73755650   350.36360517
 C      1   2   3     1.393863699139   118.83402272   170.40645490
 C      7   1   2     1.379657266730   120.97329619     1.67642287
 C      8   7   1     1.379658251174   120.30939808     2.04924126
 C      9   8   7     1.393861633182   120.97385540   357.94854071
 C     10   9   8     1.451199790392   121.63390998   178.24880634
 C     11  10   9     1.409067282498   119.73755951   170.44229048
 C      3   2   1     1.415201114130   120.02127227   184.21808123
 C     13   3   2     1.393863807256   118.83399093   170.40701582
 C     14  13   3     1.379657407215   120.97331337     1.67632208
 C     15  14  13     1.379658238957   120.30941919     2.04893808
 C      5   4   3     1.401006631116   121.59002582   168.72382362
 C     17   5   4     1.374821151756   121.61545687   180.96197284
 C     18  17   5     1.389116545988   119.72840809     0.66986119
 C     19  18  17     1.374823108805   119.72848169     0.00000000
 C     11  10   9     1.401006510500   121.58993913   348.80250989
 C     21  11  10     1.374821080073   121.61543327   180.96138853
 C     22  21  11     1.389116467937   119.72838010     0.66954834
 C     23  22  21     1.374823157227   119.72851620     0.00000000
 H      7   1   2     1.077810638106   120.52322846   183.38649375
 H      8   7   1     1.080333352039   119.84468911   181.64855362
 H      9   8   7     1.077806605680   118.48149938   179.62810660
 H     14  13   3     1.077810591605   120.52327140   183.38634189
 H     15  14  13     1.080333394330   119.84468202   181.64837379
 H     16  15  14     1.077806623404   118.48143633   179.62819306
 H     17   5   4     1.078148171800   120.06131975   359.54513158
 H     18  17   5     1.080116431258   120.08568220   179.84065518
 H     19  18  17     1.080111611893   120.18049301   179.16854389
 H     20  19  18     1.078148405354   118.30935848   177.93973664
 H     21  11  10     1.078148065349   120.06125593   359.54441391
 H     22  21  11     1.080116052314   120.08570950   179.84069112
 H     23  22  21     1.080111524665   120.18048424   179.16905159
 H     24  23  22     1.078148407785   118.30926980   177.93941951

---------------------------
INTERNAL COORDINATES (A.U.)
---------------------------
 C      0   0   0     0.000000000000     0.00000000     0.00000000
 C      1   0   0     2.674341751452     0.00000000     0.00000000
 C      2   1   0     2.707271363141   120.02130500     0.00000000
 C      3   2   1     2.674342577486   120.02149535     0.00000000
 C      4   3   2     2.742370744100   119.53247804     9.66849795
 C      5   4   3     2.662751232470   119.73755650   350.36360517
 C      1   2   3     2.634020659388   118.83402272   170.40645490
 C      7   1   2     2.607174392794   120.97329619     1.67642287
 C      8   7   1     2.607176253123   120.30939808     2.04924126
 C      9   8   7     2.634016755294   120.97385540   357.94854071
 C     10   9   8     2.742370169444   121.63390998   178.24880634
 C     11  10   9     2.662751268191   119.73755951   170.44229048
 C      3   2   1     2.674342530126   120.02127227   184.21808123
 C     13   3   2     2.634020863699   118.83399093   170.40701582
 C     14  13   3     2.607174658272   120.97331337     1.67632208
 C     15  14  13     2.607176230036   120.30941919     2.04893808
 C      5   4   3     2.647518844616   121.59002582   168.72382362
 C     17   5   4     2.598035459941   121.61545687   180.96197284
 C     18  17   5     2.625049840016   119.72840809     0.66986119
 C     19  18  17     2.598039158227   119.72848169     0.00000000
 C     11  10   9     2.647518616685   121.58993913   348.80250989
 C     21  11  10     2.598035324480   121.61543327   180.96138853
 C     22  21  11     2.625049692521   119.72838010     0.66954834
 C     23  22  21     2.598039249731   119.72851620     0.00000000
 H      7   1   2     2.036766930247   120.52322846   183.38649375
 H      8   7   1     2.041534168695   119.84468911   181.64855362
 H      9   8   7     2.036759310067   118.48149938   179.62810660
 H     14  13   3     2.036766842373   120.52327140   183.38634189
 H     15  14  13     2.041534248614   119.84468202   181.64837379
 H     16  15  14     2.036759343561   118.48143633   179.62819306
 H     17   5   4     2.037404776490   120.06131975   359.54513158
 H     18  17   5     2.041124247825   120.08568220   179.84065518
 H     19  18  17     2.041115140546   120.18049301   179.16854389
 H     20  19  18     2.037405217843   118.30935848   177.93973664
 H     21  11  10     2.037404575326   120.06125593   359.54441391
 H     22  21  11     2.041123531727   120.08570950   179.84069112
 H     23  22  21     2.041114975709   120.18048424   179.16905159
 H     24  23  22     2.037405222438   118.30926980   177.93941951

---------------------
BASIS SET INFORMATION
---------------------
There are 2 groups of distinct atoms

 Group   1 Type C   : 11s6p2d1f contracted to 5s3p2d1f pattern {62111/411/11/1}
 Group   2 Type H   : 5s1p contracted to 3s1p pattern {311/1}

Atom   0C    basis set group =>   1
Atom   1C    basis set group =>   1
Atom   2C    basis set group =>   1
Atom   3C    basis set group =>   1
Atom   4C    basis set group =>   1
Atom   5C    basis set group =>   1
Atom   6C    basis set group =>   1
Atom   7C    basis set group =>   1
Atom   8C    basis set group =>   1
Atom   9C    basis set group =>   1
Atom  10C    basis set group =>   1
Atom  11C    basis set group =>   1
Atom  12C    basis set group =>   1
Atom  13C    basis set group =>   1
Atom  14C    basis set group =>   1
Atom  15C    basis set group =>   1
Atom  16C    basis set group =>   1
Atom  17C    basis set group =>   1
Atom  18C    basis set group =>   1
Atom  19C    basis set group =>   1
Atom  20C    basis set group =>   1
Atom  21C    basis set group =>   1
Atom  22C    basis set group =>   1
Atom  23C    basis set group =>   1
Atom  24H    basis set group =>   2
Atom  25H    basis set group =>   2
Atom  26H    basis set group =>   2
Atom  27H    basis set group =>   2
Atom  28H    basis set group =>   2
Atom  29H    basis set group =>   2
Atom  30H    basis set group =>   2
Atom  31H    basis set group =>   2
Atom  32H    basis set group =>   2
Atom  33H    basis set group =>   2
Atom  34H    basis set group =>   2
Atom  35H    basis set group =>   2
Atom  36H    basis set group =>   2
Atom  37H    basis set group =>   2
---------------------------------
AUXILIARY/C BASIS SET INFORMATION
---------------------------------
There are 2 groups of distinct atoms

 Group   1 Type C   : 14s10p6d2f1g contracted to 10s8p5d1f1g pattern {5111111111/31111111/21111/2/1}
 Group   2 Type H   : 4s2p2d contracted to 2s2p2d pattern {31/11/11}

Atom   0C    basis set group =>   1
Atom   1C    basis set group =>   1
Atom   2C    basis set group =>   1
Atom   3C    basis set group =>   1
Atom   4C    basis set group =>   1
Atom   5C    basis set group =>   1
Atom   6C    basis set group =>   1
Atom   7C    basis set group =>   1
Atom   8C    basis set group =>   1
Atom   9C    basis set group =>   1
Atom  10C    basis set group =>   1
Atom  11C    basis set group =>   1
Atom  12C    basis set group =>   1
Atom  13C    basis set group =>   1
Atom  14C    basis set group =>   1
Atom  15C    basis set group =>   1
Atom  16C    basis set group =>   1
Atom  17C    basis set group =>   1
Atom  18C    basis set group =>   1
Atom  19C    basis set group =>   1
Atom  20C    basis set group =>   1
Atom  21C    basis set group =>   1
Atom  22C    basis set group =>   1
Atom  23C    basis set group =>   1
Atom  24H    basis set group =>   2
Atom  25H    basis set group =>   2
Atom  26H    basis set group =>   2
Atom  27H    basis set group =>   2
Atom  28H    basis set group =>   2
Atom  29H    basis set group =>   2
Atom  30H    basis set group =>   2
Atom  31H    basis set group =>   2
Atom  32H    basis set group =>   2
Atom  33H    basis set group =>   2
Atom  34H    basis set group =>   2
Atom  35H    basis set group =>   2
Atom  36H    basis set group =>   2
Atom  37H    basis set group =>   2
----------------------------------
AUXILIARY/JK BASIS SET INFORMATION
----------------------------------
There are 2 groups of distinct atoms

 Group   1 Type C   : 14s10p6d2f1g contracted to 10s8p5d1f1g pattern {5111111111/31111111/21111/2/1}
 Group   2 Type H   : 4s2p2d contracted to 2s2p2d pattern {31/11/11}

Atom   0C    basis set group =>   1
Atom   1C    basis set group =>   1
Atom   2C    basis set group =>   1
Atom   3C    basis set group =>   1
Atom   4C    basis set group =>   1
Atom   5C    basis set group =>   1
Atom   6C    basis set group =>   1
Atom   7C    basis set group =>   1
Atom   8C    basis set group =>   1
Atom   9C    basis set group =>   1
Atom  10C    basis set group =>   1
Atom  11C    basis set group =>   1
Atom  12C    basis set group =>   1
Atom  13C    basis set group =>   1
Atom  14C    basis set group =>   1
Atom  15C    basis set group =>   1
Atom  16C    basis set group =>   1
Atom  17C    basis set group =>   1
Atom  18C    basis set group =>   1
Atom  19C    basis set group =>   1
Atom  20C    basis set group =>   1
Atom  21C    basis set group =>   1
Atom  22C    basis set group =>   1
Atom  23C    basis set group =>   1
Atom  24H    basis set group =>   2
Atom  25H    basis set group =>   2
Atom  26H    basis set group =>   2
Atom  27H    basis set group =>   2
Atom  28H    basis set group =>   2
Atom  29H    basis set group =>   2
Atom  30H    basis set group =>   2
Atom  31H    basis set group =>   2
Atom  32H    basis set group =>   2
Atom  33H    basis set group =>   2
Atom  34H    basis set group =>   2
Atom  35H    basis set group =>   2
Atom  36H    basis set group =>   2
Atom  37H    basis set group =>   2


           ************************************************************
           *        Program running with 104 parallel MPI-processes   *
           *              working on a common directory               *
           ************************************************************
------------------------------------------------------------------------------
                             ORCA STARTUP CALCULATIONS
                           -- RI-GTO INTEGRALS CHOSEN --
------------------------------------------------------------------------------
------------------------------------------------------------------------------
                   ___                                                        
                  /   \      - P O W E R E D   B Y -                         
                 /     \                                                     
                 |  |  |   _    _      __       _____    __    __             
                 |  |  |  | |  | |    /  \     |  _  \  |  |  /  |          
                  \  \/   | |  | |   /    \    | | | |  |  | /  /          
                 / \  \   | |__| |  /  /\  \   | |_| |  |  |/  /          
                |  |  |   |  __  | /  /__\  \  |    /   |      \           
                |  |  |   | |  | | |   __   |  |    \   |  |\   \          
                \     /   | |  | | |  |  |  |  | |\  \  |  | \   \       
                 \___/    |_|  |_| |__|  |__|  |_| \__\ |__|  \__/        
                                                                              
                      - O R C A' S   B I G   F R I E N D -                    
                                      &                                       
                       - I N T E G R A L  F E E D E R -                       
                                                                              
 v1 FN, 2020, v2 2021, v3 2022-2024                                           
------------------------------------------------------------------------------


----------------------
SHARK INTEGRAL PACKAGE
----------------------

Number of atoms                             ...     38
Number of basis functions                   ...    828
Number of shells                            ...    320
Maximum angular momentum                    ...      3
Integral batch strategy                     ... SHARK/LIBINT Hybrid
RI-J (if used) integral strategy            ... SPLIT-RIJ (Revised 2003 algorithm where possible)
Printlevel                                  ...      1
Contraction scheme used                     ... SEGMENTED contraction
Prescreening option                         ... SCHWARTZ
   Thresh                                   ... 1.000e-10
   Tcut                                     ... 1.000e-11
   Tpresel                                  ... 1.000e-11 
Coulomb Range Separation                    ... NOT USED
Exchange Range Separation                   ... NOT USED
Multipole approximations                    ... NOT USED
Finite Nucleus Model                        ... NOT USED
CABS basis                                  ... NOT available
Auxiliary Coulomb fitting basis             ... NOT available
Auxiliary J/K fitting basis                 ... AVAILABLE
   # of basis functions in Aux-JK           ...   2052
   # of shells in Aux-JK                    ...    684
   Maximum angular momentum in Aux-JK       ...      4
Auxiliary Correlation fitting basis         ... AVAILABLE
   # of basis functions in Aux-C            ...   2052
   # of shells in Aux-C                     ...    684
   Maximum angular momentum in Aux-C        ...      4
Auxiliary 'external' fitting basis          ... NOT available

Checking pre-screening integrals            ... done (  0.0 sec) Dimension = 320
Check shell pair data                       ... done (  0.0 sec)
Shell pair information
Shell pair cut-off parameter TPreSel        ...   1.0e-11
Total number of shell pairs                 ...     51360
Shell pairs after pre-screening             ...     36972
Total number of primitive shell pairs       ...    159900
Primitive shell pairs kept                  ...     76745
          la=0 lb=0:   8931 shell pairs
          la=1 lb=0:  10444 shell pairs
          la=1 lb=1:   3031 shell pairs
          la=2 lb=0:   5470 shell pairs
          la=2 lb=1:   3182 shell pairs
          la=2 lb=2:    875 shell pairs
          la=3 lb=0:   2522 shell pairs
          la=3 lb=1:   1512 shell pairs
          la=3 lb=2:    804 shell pairs
          la=3 lb=3:    201 shell pairs

Calculating one electron integrals          ... done (  0.8 sec)
Calculating RI/JK V-Matrix + Cholesky decomp... done (  0.5 sec)
Calculating RI/C V-Matrix + Cholesky decomp.... done (  0.4 sec)
Calculating Nuclear repulsion               ... done (  0.0 sec) ENN=   1827.308642006096 Eh

Diagonalization of the overlap matrix:
Smallest eigenvalue                        ... 2.062e-06
Time for diagonalization                   ...    0.106 sec
Threshold for overlap eigenvalues          ... 1.000e-07
Number of eigenvalues below threshold      ... 0
Time for construction of square roots      ...    0.052 sec
Total time needed                          ...    0.184 sec

-------------------
DFT GRID GENERATION
-------------------

General Integration Accuracy     IntAcc      ... 4.959
Radial Grid Type                 RadialGrid  ... OptM3 with GC (2021)
Angular Grid (max. ang.)         AngularGrid ... 6 (Lebedev-590)
Angular grid pruning method      GridPruning ... 4 (adaptive)
Weight generation scheme         WeightScheme... mBecke (2022)
Basis function cutoff            BFCut       ... 1.0000e-10
Integration weight cutoff        WCut        ... 1.0000e-14
Partially contracted basis set               ... off
Rotationally invariant grid construction     ... off
Angular grids for H and He will be reduced by one unit

Total number of grid points                  ...   457163
Total number of batches                      ...     7164
Average number of points per batch           ...       63
Average number of grid points per atom       ...    12031
Initializing property integral containers    ... done (  0.0 sec)

SHARK setup successfully completed in   7.1 seconds

Maximum memory used throughout the entire STARTUP-calculation: 119.6 MB


           ************************************************************
           *        Program running with 104 parallel MPI-processes   *
           *              working on a common directory               *
           ************************************************************
-------------------------------------------------------------------------------
                                 ORCA GUESS
                   Start orbitals & Density for SCF / CASSCF
-------------------------------------------------------------------------------

------------
SCF SETTINGS
------------
Hamiltonian:
 Density Functional     Method          .... DFT(GTOs)
 Exchange Functional    Exchange        .... PBE
   PBE kappa parameter   XKappa         ....  0.804000
   PBE mue parameter    XMuePBE         ....  0.219520
 Correlation Functional Correlation     .... P86
 LDA part of GGA corr.  LDAOpt          .... VWN-5
 Gradients option       PostSCFGGA      .... off
 Hybrid DFT is turned on
   Fraction HF Exchange ScalHFX         ....  0.690000
   Scaling of DF-GGA-X  ScalDFX         ....  0.310000
   Scaling of DF-GGA-C  ScalDFC         ....  0.403800
   Scaling of DF-LDA-C  ScalLDAC        ....  0.403800
   Perturbative correction              ....  1.000000
 RI-approximation to the Coulomb term is turned on
   Number of AuxJK basis functions      .... 2052
   RI-JK (J+K treated both via RI)      .... on


General Settings:
 Integral files         IntName         .... compas3x_hc_c24h14_0pent_1_tz_jkjk
 Hartree-Fock type      HFTyp           .... RHF
 Total Charge           Charge          ....    0
 Multiplicity           Mult            ....    1
 Number of Electrons    NEL             ....  158
 Basis Dimension        Dim             ....  828
 Nuclear Repulsion      ENuc            ....   1827.3086420061 Eh

Convergence Acceleration:
 AO-DIIS                CNVDIIS         .... on
   Start iteration      DIISMaxIt       ....    12
   Startup error        DIISStart       ....  0.200000
   # of expansion vecs  DIISMaxEq       ....     5
   Bias factor          DIISBfac        ....   1.050
   Max. coefficient     DIISMaxC        ....  10.000
 MO-DIIS                CNVKDIIS        .... off
 Trust-Rad. Augm. Hess. CNVTRAH         .... auto
   Auto Start mean grad. ratio tolernc. ....  1.125000
   Auto Start start iteration           ....    50
   Auto Start num. interpolation iter.  ....    10
   Max. Number of Micro iterations      ....    24
   Max. Number of Macro iterations      .... Maxiter - #DIIS iter
   Number of Davidson start vectors     ....     2
   Converg. threshold    (grad. norm)   ....   5.000e-05
   Grad. Scal. Fac. for Micro threshold ....   0.100
   Minimum threshold for Micro iter.    ....   1.000e-02
   NR start threshold (gradient norm)   ....   1.000e-04
   Initial trust radius                 ....   0.400
   Minimum AH scaling param. (alpha)    ....   1.000
   Maximum AH scaling param. (alpha)    .... 1000.000
   Quad. conv. algorithm                .... NR
   White noise on init. David. guess    .... on
   Maximum white noise                  ....   0.010
   Pseudo random numbers                .... off
   Inactive MOs                         .... canonical
   Orbital update algorithm             .... Taylor
   Preconditioner                       .... Diag
   Full preconditioner red. dimension   ....   250
 SOSCF                  CNVSOSCF        .... on
   Start iteration      SOSCFMaxIt      ....   150
   Startup grad/error   SOSCFStart      ....  0.003300
   Hessian update       SOSCFHessUp     .... L-BFGS
 Level Shifting         CNVShift        .... on
   Level shift para.    LevelShift      ....    0.2500
   Turn off err/grad.   ShiftErr        ....    0.0010
 Zerner damping         CNVZerner       .... off
 Static damping         CNVDamp         .... on
   Fraction old density DampFac         ....    0.7000
   Max. Damping (<1)    DampMax         ....    0.9800
   Min. Damping (>=0)   DampMin         ....    0.0000
   Turn off err/grad.   DampErr         ....    0.1000

SCF Procedure:
 Maximum # iterations   MaxIter         ....   125
 SCF integral mode      SCFMode         .... Direct
   Integral package                     .... SHARK and LIBINT hybrid scheme
 Reset frequency        DirectResetFreq ....    20
 Integral Threshold     Thresh          ....  1.000e-10 Eh
 Primitive CutOff       TCut            ....  1.000e-11 Eh

Convergence Tolerance:
 Convergence Check Mode ConvCheckMode   .... Total+1el-Energy
 Convergence forced     ConvForced      .... 0
 Energy Change          TolE            ....  1.000e-06 Eh
 1-El. energy change                    ....  1.000e-03 Eh
 Orbital Gradient       TolG            ....  5.000e-05
 Orbital Rotation angle TolX            ....  5.000e-05
 DIIS Error             TolErr          ....  1.000e-06

------------------------------
INITIAL GUESS: MODEL POTENTIAL
------------------------------
Loading Hartree-Fock densities                     ... done
Calculating cut-offs                               ... done
Initializing the effective Hamiltonian             ... done
Setting up the integral package (SHARK)            ... done
Starting the Coulomb interaction                   ... done (   0.1 sec)
Making the grid                                    ... done (   0.3 sec)
Mapping shells                                     ... done
Starting the XC term evaluation                    ... done (   0.1 sec)
  promolecular density results
     # of electrons  =    157.990190394
     EX              =   -127.054805626
     EC              =      0.196372020
     EX+EC           =   -126.858433607
Transforming the Hamiltonian                       ... done (   0.1 sec)
Diagonalizing the Hamiltonian                      ... done (   0.1 sec)
Back transforming the eigenvectors                 ... done (   0.1 sec)
Now organizing SCF variables                       ... done
                      ------------------
                      INITIAL GUESS DONE (   1.0 sec)
                      ------------------
             **** ENERGY FILE WAS UPDATED (compas3x_hc_c24h14_0pent_1_tz_jkjk.en.tmp) ****
Finished Guess after  15.9 sec
Maximum memory used throughout the entire GUESS-calculation: 69.9 MB


           ************************************************************
           *        Program running with 104 parallel MPI-processes   *
           *              working on a common directory               *
           ************************************************************

-------------------------------------------------------------------------------------------
                                      ORCA LEAN-SCF
                              memory conserving SCF solver
-------------------------------------------------------------------------------------------

----------------------------------------D-I-I-S--------------------------------------------
Iteration    Energy (Eh)           Delta-E    RMSDP     MaxDP     DIISErr   Damp  Time(sec)
-------------------------------------------------------------------------------------------
    1    -919.0206650458312652     0.00e+00  2.09e-03  2.07e-01  1.47e-01  0.700   4.1
    2    -918.8252103705103764     1.95e-01  2.70e-03  2.72e-01  1.32e-01  0.700   4.2
                               ***Turning on AO-DIIS***
    3    -918.9363422786477713    -1.11e-01  9.03e-04  3.55e-02  7.83e-02  0.700   3.9
    4    -919.1555437847864596    -2.19e-01  2.11e-03  2.03e-01  3.21e-02  0.000   4.0
    5    -919.5099074513263986    -3.54e-01  7.67e-04  6.14e-02  3.31e-02  0.000   3.8
    6    -919.5237336845407299    -1.38e-02  3.53e-04  2.91e-02  1.65e-02  0.000   3.9
    7    -919.5273072322884218    -3.57e-03  1.06e-04  5.18e-03  5.17e-03  0.000   4.0
                              *** Initializing SOSCF ***
---------------------------------------S-O-S-C-F--------------------------------------
Iteration    Energy (Eh)           Delta-E    RMSDP     MaxDP     MaxGrad    Time(sec)
--------------------------------------------------------------------------------------
    8    -919.5277606906270194    -4.53e-04  7.53e-05  8.23e-03  1.58e-03     4.2
    9    -919.5278067358362932    -4.60e-05  2.72e-05  7.05e-04  1.58e-04     3.7
   10    -919.5278096407000703    -2.90e-06  3.39e-05  3.74e-03  1.13e-04     3.7
   11    -919.5278099950273827    -3.54e-07  4.05e-06  1.91e-04  5.98e-05     3.5
                 **** Energy Check signals convergence ****

               *****************************************************
               *                     SUCCESS                       *
               *           SCF CONVERGED AFTER  11 CYCLES          *
               *****************************************************

             **** ENERGY FILE WAS UPDATED (compas3x_hc_c24h14_0pent_1_tz_jkjk.en.tmp) ****

----------------
TOTAL SCF ENERGY
----------------

Total Energy       :       -919.52780999502738 Eh          -25021.62378 eV

Components:
Nuclear Repulsion  :       1827.30864200609631 Eh           49723.59605 eV
Electronic Energy  :      -2746.83645200112369 Eh          -74745.21983 eV
One Electron Energy:      -4875.17965840584020 Eh         -132660.38283 eV
Two Electron Energy:       2128.34320640471651 Eh           57915.16300 eV

Virial components:
Potential Energy   :      -1837.10743076081417 Eh          -49990.23465 eV
Kinetic Energy     :        917.57962076578690 Eh           24968.61086 eV
Virial Ratio       :          2.00212318275728

DFT components:
N(Alpha)           :       79.000001445951 electrons
N(Beta)            :       79.000001445951 electrons
N(Total)           :      158.000002891901 electrons
E(X)               :      -40.069489597265 Eh       
E(C)               :       -2.357033870999 Eh       
E(XC)              :      -42.426523468264 Eh       

---------------
SCF CONVERGENCE
---------------

  Last Energy change         ...    3.5433e-07  Tolerance :   1.0000e-06
  Last MAX-Density change    ...    1.9064e-04  Tolerance :   1.0000e-05
  Last RMS-Density change    ...    4.0467e-06  Tolerance :   1.0000e-06
  Last DIIS Error            ...    1.5821e-03  Tolerance :   1.0000e-06
  Last Orbital Gradient      ...    5.9849e-05  Tolerance :   5.0000e-05
  Last Orbital Rotation      ...    1.0484e-04  Tolerance :   5.0000e-05


----------------
ORBITAL ENERGIES
----------------

  NO   OCC          E(Eh)            E(eV) 
   0   2.0000     -10.834189      -294.8133 
   1   2.0000     -10.833952      -294.8068 
   2   2.0000     -10.833741      -294.8011 
   3   2.0000     -10.833655      -294.7987 
   4   2.0000     -10.833235      -294.7873 
   5   2.0000     -10.832921      -294.7788 
   6   2.0000     -10.832733      -294.7736 
   7   2.0000     -10.832480      -294.7668 
   8   2.0000     -10.832115      -294.7568 
   9   2.0000     -10.832065      -294.7555 
  10   2.0000     -10.820404      -294.4382 
  11   2.0000     -10.820402      -294.4381 
  12   2.0000     -10.820204      -294.4327 
  13   2.0000     -10.820204      -294.4327 
  14   2.0000     -10.819994      -294.4270 
  15   2.0000     -10.819990      -294.4269 
  16   2.0000     -10.819286      -294.4077 
  17   2.0000     -10.819286      -294.4077 
  18   2.0000     -10.818892      -294.3970 
  19   2.0000     -10.818890      -294.3970 
  20   2.0000     -10.818507      -294.3865 
  21   2.0000     -10.818507      -294.3865 
  22   2.0000     -10.818379      -294.3831 
  23   2.0000     -10.818378      -294.3830 
  24   2.0000      -1.098037       -29.8791 
  25   2.0000      -1.064213       -28.9587 
  26   2.0000      -1.046077       -28.4652 
  27   2.0000      -1.035488       -28.1771 
  28   2.0000      -0.977091       -26.5880 
  29   2.0000      -0.972264       -26.4567 
  30   2.0000      -0.965443       -26.2710 
  31   2.0000      -0.931904       -25.3584 
  32   2.0000      -0.915380       -24.9087 
  33   2.0000      -0.893112       -24.3028 
  34   2.0000      -0.888468       -24.1764 
  35   2.0000      -0.877851       -23.8875 
  36   2.0000      -0.797536       -21.7021 
  37   2.0000      -0.778259       -21.1775 
  38   2.0000      -0.777256       -21.1502 
  39   2.0000      -0.770975       -20.9793 
  40   2.0000      -0.750416       -20.4199 
  41   2.0000      -0.709801       -19.3147 
  42   2.0000      -0.693494       -18.8709 
  43   2.0000      -0.686905       -18.6916 
  44   2.0000      -0.673960       -18.3394 
  45   2.0000      -0.626000       -17.0343 
  46   2.0000      -0.616304       -16.7705 
  47   2.0000      -0.615890       -16.7592 
  48   2.0000      -0.615663       -16.7530 
  49   2.0000      -0.588265       -16.0075 
  50   2.0000      -0.563950       -15.3459 
  51   2.0000      -0.562267       -15.3001 
  52   2.0000      -0.561423       -15.2771 
  53   2.0000      -0.542450       -14.7608 
  54   2.0000      -0.536582       -14.6011 
  55   2.0000      -0.531584       -14.4651 
  56   2.0000      -0.524474       -14.2717 
  57   2.0000      -0.524355       -14.2684 
  58   2.0000      -0.521899       -14.2016 
  59   2.0000      -0.521595       -14.1933 
  60   2.0000      -0.481901       -13.1132 
  61   2.0000      -0.479735       -13.0543 
  62   2.0000      -0.471052       -12.8180 
  63   2.0000      -0.466889       -12.7047 
  64   2.0000      -0.461890       -12.5687 
  65   2.0000      -0.457266       -12.4428 
  66   2.0000      -0.455651       -12.3989 
  67   2.0000      -0.444245       -12.0885 
  68   2.0000      -0.436658       -11.8821 
  69   2.0000      -0.410957       -11.1827 
  70   2.0000      -0.408427       -11.1139 
  71   2.0000      -0.371348       -10.1049 
  72   2.0000      -0.364442        -9.9170 
  73   2.0000      -0.362599        -9.8668 
  74   2.0000      -0.326371        -8.8810 
  75   2.0000      -0.303091        -8.2475 
  76   2.0000      -0.283568        -7.7163 
  77   2.0000      -0.263526        -7.1709 
  78   2.0000      -0.249539        -6.7903 
  79   0.0000       0.011890         0.3235 
  80   0.0000       0.025961         0.7064 
  81   0.0000       0.028527         0.7763 
  82   0.0000       0.057397         1.5619 
  83   0.0000       0.068883         1.8744 
  84   0.0000       0.114362         3.1120 
  85   0.0000       0.114734         3.1221 
  86   0.0000       0.117289         3.1916 
  87   0.0000       0.130259         3.5445 
  88   0.0000       0.130706         3.5567 
  89   0.0000       0.131056         3.5662 
*Only the first 10 virtual orbitals were printed.
-------
TIMINGS
-------

Total SCF time: 0 days 0 hours 0 min 58 sec 

Total time                  ....      58.665 sec
Sum of individual times     ....      58.223 sec  ( 99.2%)

SCF preparation             ....      14.998 sec  ( 25.6%)
Fock matrix formation       ....      34.203 sec  ( 58.3%)
  Startup                   ....       1.245 sec  (  3.6% of F)
  RI-JK                     ....      25.394 sec  ( 74.2% of F)
  XC integration            ....       5.217 sec  ( 15.3% of F)
    XC Preparation          ....       0.000 sec  (  0.0% of XC)
    Basis function eval.    ....       0.434 sec  (  8.3% of XC)
    Density eval.           ....       0.656 sec  ( 12.6% of XC)
    XC-Functional eval.     ....       0.031 sec  (  0.6% of XC)
    XC-Potential eval.      ....       0.840 sec  ( 16.1% of XC)
Diagonalization             ....       0.000 sec  (  0.0%)
Density matrix formation    ....       1.630 sec  (  2.8%)
Total Energy calculation    ....       1.034 sec  (  1.8%)
Population analysis         ....       0.000 sec  (  0.0%)
Orbital Transformation      ....       0.741 sec  (  1.3%)
Orbital Orthonormalization  ....       0.000 sec  (  0.0%)
DIIS solution               ....       4.380 sec  (  7.5%)
SOSCF solution              ....       1.161 sec  (  2.0%)
Finished LeanSCF after  59.0 sec

Maximum memory used throughout the entire LEANSCF-calculation: 156.1 MB


           ************************************************************
           *        Program running with 104 parallel MPI-processes   *
           *              working on a common directory               *
           ************************************************************

------------------------------------------------------------------------------
                                ORCA  MP2 
------------------------------------------------------------------------------


-------------
RI-MP2 ENERGY
-------------
Dimension of the orbital basis            ...  828
Dimension of the AuxC basis               ... 2052
Memory devoted to MP2                     ... 4096 MB   
Data format for matrix containers         ... DOUBLE
Compression type for matrix containers    ... UNCOMPRESSED
Scaling for aa/bb pairs                   ...   5.710e-02
Scaling for ab pairs                      ...   5.979e-01
Overall scaling of the MP2 energy         ...   1.000e+00

-----------------------
SHARK RI TRANSFORMATION
-----------------------

Number of basis functions                ...    828
Number of aux functions                  ...   2052
Number of operators                      ...      1
Generation of IJK                        ... NO
Generation of IAK                        ... YES
Generation of ABK                        ... NO
Orbital Range Operator  0:    0-  78 to   79- 827

Aux basis identifier                     ...   AUXC
Contraction scheme used                  ... SEGMENTED
Do orthogonalization                     ... YES
All operator combinations                ... NO
Transpose (ia|K)                         ... NO
Integral generator used                  ... LIBINT
Starting integral generation + trafo... 
Half trafo (segmented) done. Total time =  1.1 sec. integrals=  0.3 sec trafo=  0.4 sec
Integral generation and half transformation done (  1.1 sec)

Reading or making V^(-1/2)          ... done (  0.1 sec)
Sorting IAK integrals               ... done (  1.8 sec)

SHARK RI integral transformation done. Total time =  3.1 sec.

Opening buffers                              ... done

Starting loop over batches of integrals:

Operator 0  - window                       ... (  0- 78)x( 79-827)
Operator 0  - Memory available             ...  4096 MB
Operator 0  - Memory needed per MO         ...  11.7 MB
Operator 0  - Number of orbitals per batch ... 1
Operator 0  - Number of batches            ... 1

OPERATOR  0   PASS   0:  MOs     0 ...    0 +    1 ...    1 +    2 ...    2 +    3 ...    3
                            +    4 ...    4 +    5 ...    5 +    6 ...    6 +    7 ...    7
                            +    8 ...    8 +    9 ...    9 +   10 ...   10 +   11 ...   11
                            +   12 ...   12 +   13 ...   13 +   14 ...   14 +   15 ...   15
                            +   16 ...   16 +   17 ...   17 +   18 ...   18 +   19 ...   19
                            +   20 ...   20 +   21 ...   21 +   22 ...   22 +   23 ...   23
                            +   24 ...   24 +   25 ...   25 +   26 ...   26 +   27 ...   27
                            +   28 ...   28 +   29 ...   29 +   30 ...   30 +   31 ...   31
                            +   32 ...   32 +   33 ...   33 +   34 ...   34 +   35 ...   35
                            +   36 ...   36 +   37 ...   37 +   38 ...   38 +   39 ...   39
                            +   40 ...   40 +   41 ...   41 +   42 ...   42 +   43 ...   43
                            +   44 ...   44 +   45 ...   45 +   46 ...   46 +   47 ...   47
                            +   48 ...   48 +   49 ...   49 +   50 ...   50 +   51 ...   51
                            +   52 ...   52 +   53 ...   53 +   54 ...   54 +   55 ...   55
                            +   56 ...   56 +   57 ...   57 +   58 ...   58 +   59 ...   59
                            +   60 ...   60 +   61 ...   61 +   62 ...   62 +   63 ...   63
                            +   64 ...   64 +   65 ...   65 +   66 ...   66 +   67 ...   67
                            +   68 ...   68 +   69 ...   69 +   70 ...   70 +   71 ...   71
                            +   72 ...   72 +   73 ...   73 +   74 ...   74 +   75 ...   75
                            +   76 ...   76 +   77 ...   77 +   78 ...   78
  Reading integrals       ... ok
Time spent in pair loops =     4.772 sec

-----------------------------------------------
 RI-MP2 CORRELATION ENERGY:     -2.133526524 Eh
-----------------------------------------------


-------
TIMINGS
-------

Total time                :    8.861 sec
Integral trafo            :    3.217 sec ( 36.3%)
I/O of integrals          :    0.007 sec (  0.1%)
K(i,j) operators          :    0.046 sec (  0.5%)
T(i,j) pair energies      :    0.007 sec (  0.1%)
V**(-1/2)                 :    0.870 sec (  9.8%)


---------------------------------------
MP2 TOTAL ENERGY:     -921.661336520 Eh
---------------------------------------

Maximum memory used throughout the entire MP2-calculation: 112.5 MB


-------------------------------------------------------------------------------
                          DFT DISPERSION CORRECTION                            
                                                                               
                                DFTD4 V3.4.0                                   
-------------------------------------------------------------------------------
The REV-DSD-PBEP86-2021 functional is recognized
A user input s6-coefficient scaling factor has been recognized
A user input a1-coefficient scaling factor has been recognized
A user input s8-coefficient scaling factor has been recognized
A user input a2-coefficient scaling factor has been recognized
A user input s9-coefficient scaling factor has been recognized
Active option DFTDOPT                   ...         5   

-------------------------   ----------------
Dispersion correction           -0.038822346
-------------------------   ----------------


-------------------------   --------------------
FINAL SINGLE POINT ENERGY      -921.700158865662
-------------------------   --------------------



           ************************************************************
           *        Program running with 104 parallel MPI-processes   *
           *              working on a common directory               *
           ************************************************************

------------------------------------------------------------------------------
                              ORCA PROPERTY CALCULATIONS
------------------------------------------------------------------------------

GBWName                                 ... compas3x_hc_c24h14_0pent_1_tz_jkjk.gbw
Number of atoms                         ...     38
Number of basis functions               ...    828
Max core memory                         ...   1024 MB

Electric properties:
Dipole moment                           ... YES
Quadrupole moment                       ...  NO
Static polarizability (Dipole/Dipole)   ...  NO
Static polarizability (Dipole/Quad.)    ...  NO
Static polarizability (Quad./Quad.)     ...  NO
Static polarizability (Velocity)        ...  NO

Atomic electric properties:
Dipole moment                           ...  NO
Quadrupole moment                       ...  NO
Static polarizability                   ...  NO

Choice of electric origin               ... Center of mass
Position of electric origin             ...    -0.000061    -0.000050     0.020429

General magnetic properties:
Magnetizability                         ...  NO

EPR properties:
g-Tensor (aka g-matrix)                 ...  NO
Zero-Field splitting spin-orbit         ...  NO
Zero-field splitting spin-spin          ...  NO
Hyperfine couplings                     ...  NO (   0 nuclei)
Quadrupole couplings                    ...  NO (   0 nuclei)
Contact density                         ...  NO (   0 nuclei)

NMR properties:
Chemical shifts                         ...  NO (   0 nuclei)
Spin-rotation constants                 ...  NO (   0 nuclei)
Spin-spin couplings                     ...  NO (   0 nuclei,    0 pairs)

Choice of magnetic origin               ... GIAO
Position of magnetic origin             ...     0.000000     0.000000     0.000000

Properties with geometric perturbations:
SCF Hessian                             ...  NO
IR spectrum                             ...  NO
VCD spectrum                            ...  NO
X-ray spectroscopy properties:
SCF XES/XAS/RIXS spectra                ...  NO


-------------
DIPOLE MOMENT
-------------

Method             : SCF
Type of density    : Electron Density
Multiplicity       :   1
Irrep              :   0
Energy             :  -919.5278099950273827 Eh
Relativity type    : 
Basis              : AO
                                X                 Y                 Z
Electronic contribution:     -0.000225621       0.000002567       0.403663761
Nuclear contribution   :      0.000235751      -0.000002897      -0.421743306
                        -----------------------------------------
Total Dipole Moment    :      0.000010130      -0.000000330      -0.018079545
                        -----------------------------------------
Magnitude (a.u.)       :      0.018079548
Magnitude (Debye)      :      0.045954559



--------------------
Rotational spectrum 
--------------------
 
Rotational constants in cm-1:             0.015922             0.006852             0.004860 
Rotational constants in MHz :           477.341652           205.425138           145.689010 

Dipole components along the rotational axes: 
x,y,z [a.u.] :     0.000000     0.000000    -0.018080 
x,y,z [Debye]:     0.000000     0.000000    -0.045955 

 

Dipole moment calculation done in   0.1 sec 

Maximum memory used throughout the entire PROP-calculation: 70.7 MB

--------------------------------
SUGGESTED CITATIONS FOR THIS RUN
--------------------------------

Below you find a list of papers that are relevant to this ORCA run
We neither can nor want to force you to cite these papers, but we appreciate if you do
You receive ORCA, which is the product of decades of hard work by many enthusiastic individuals, for free
The only thing we kindly ask in return is that you cite our papers,
We deeply appreciate it, if you show your appreciation for ORCA by not just citing the generic ORCA reference.

Please note that relegating all ORCA citations to the supporting information does *not* help us.
SI sections are not indexed - citations you put there will not count into any citation statistics
But we need these citations in order to attract the funding resources that allow us to do what we are doing

Therefore, if you are a happy ORCA user, please consider citing a few of the papers listed below in the main body of your paper

In addition to the list printed below, the program has created the file compas3x_hc_c24h14_0pent_1_tz_jkjk.bibtex that contains the list in bibtex format
You can import this file easily into all common literature databanks and citation aid programs


List of essential papers. We consider these as the minimum necessary citations

  1. Neese,F.
     Software update: the ORCA program system, version 5.0
     WIRES Comput. Molec. Sci., 2022 12(1)e1606
     doi.org/10.1002/wcms.1606

List of papers to cite with high priority. The work reported in these papers was absolutely
necessary for this run to complete.
Our perspective: the developers of density functionals and basis sets usually get cited in chemistry papers
Good! But without the algorithms to do something with them, the functionals or basis sets would not do anything.
Hence, in our opinion, the algorithm design and method developments papers are equally worthy of getting cited

  1. Neese,F.
     An improvement of the resolution of the identity approximation for the formation of the Coulomb matrix
     J. Comp. Chem., 2003 24(14)1740-1747
     doi.org/10.1002/jcc.10318
  2. Kossmann,S.; Neese,F.
     Comparison of two efficient approximate Hartee-Fock approaches
     Chem. Phys. Lett., 2009 481 240-243
     doi.org/10.1016/j.cplett.2009.09.073
  3. Neese,F.
     The SHARK Integral Generation and Digestion System
     J. Comp. Chem., 2022  1-16
     doi.org/10.1002/jcc.26942
  4. Caldeweyher,E.; Bannwarth,C.; Grimme,S.
     Extension of the D3 dispersion coefficient model
     J. Chem. Phys., 2017 147 034112
     doi.org/10.1063/1.4993215
  5. Caldeweyher,E.; Ehlert,S.; Hansen,A.; Neugebauer,H.; Spicher,S.; Bannwarth,C.; Grimme,S.
     A generally applicable atomic-charge dependent London dispersion correction
     J. Chem. Phys., 2019 150 154122
     doi.org/10.1063/1.5090222
  6. Caldeweyher,E.; Mewes,J.; Ehlert,S.; Grimme,S.
     Extension and evaluation of the D4 London-dispersion model for periodic systems
     Phys. Chem. Chem. Phys., 2020 22(16)8499-8512
     doi.org/10.1039/D0CP00502A
  7. Wittmann,L.; Gordiy,I.; Friede,M.; Helmich-Paris,B.; Grimme,S.; Hansen,A.; Bursch,M.
     Extension of the D3 and D4 London Dispersion Corrections to the full Actinides Series
     Phys. Chem. Chem. Phys., 2024 26(32)21379-21394
     doi.org/https://doi.org/10.1039/D4CP01514B 

List of suggested additional citations. These are papers that are important in the 'surrounding' of 
of this run, or papers that preceded the highly important papers. If you like your results we are grateful for a citation.

  1. Neese,F.
     The ORCA program system
     WIRES Comput. Molec. Sci., 2012 2(1)73-78
     doi.org/10.1002/wcms.81
  2. Neese,F.
     Software update: the ORCA program system, version 4.0
     WIRES Comput. Molec. Sci., 2018 8(1)1-6
     doi.org/10.1002/wcms.1327
  3. Neese,F.; Wennmohs,F.; Becker,U.; Riplinger,C.
     The ORCA quantum chemistry program package
     J. Chem. Phys., 2020 152 Art. No. L224108
     doi.org/10.1063/5.0004608

List of optional additional citations

  1. Neese,F.
     Approximate second-order SCF convergence for spin unrestricted wavefunctions
     Chem. Phys. Lett., 2000 325(1-3)93-98
     doi.org/10.1016/s0009-2614(00)00662-x

Timings for individual modules:

Sum of individual times          ...      141.091 sec (=   2.352 min)
Startup calculation              ...       22.588 sec (=   0.376 min)  16.0 %
SCF iterations                   ...       77.512 sec (=   1.292 min)  54.9 %
Property calculations            ...       15.914 sec (=   0.265 min)  11.3 %
MP2 module                       ...       25.077 sec (=   0.418 min)  17.8 %
                             ****ORCA TERMINATED NORMALLY****
TOTAL RUN TIME: 0 days 0 hours 2 minutes 48 seconds 366 msec
