
                                 *****************
                                 * O   R   C   A *
                                 *****************

                                            #,                                       
                                            ###                                      
                                            ####                                     
                                            #####                                    
                                            ######                                   
                                           ########,                                 
                                     ,,################,,,,,                         
                               ,,#################################,,                 
                          ,,##########################################,,             
                       ,#########################################, ''#####,          
                    ,#############################################,,   '####,        
                  ,##################################################,,,,####,       
                ,###########''''           ''''###############################       
              ,#####''   ,,,,##########,,,,          '''####'''          '####       
            ,##' ,,,,###########################,,,                        '##       
           ' ,,###''''                  '''############,,,                           
         ,,##''                                '''############,,,,        ,,,,,,###''
      ,#''                                            '''#######################'''  
     '                                                          ''''####''''         
             ,#######,   #######,   ,#######,      ##                                
            ,#'     '#,  ##    ##  ,#'     '#,    #''#        ,####,   ,####,        
            ##       ##  ##   ,#'  ##            #'  '#       #'       #'  '#        
            ##       ##  #######   ##           ,######,      #####,   #    #        
            '#,     ,#'  ##    ##  '#,     ,#' ,#      #,     #,   #   #,  ,#        
             '#######'   ##     ##  '#######'  #'      '#     '####' # '####'        



                #########################################################
                #                        -***-                          #
                #          Department of theory and spectroscopy        #
                #                                                       #
                #                      Frank Neese                      #
                #                                                       #
                #     Directorship, Architecture, Infrastructure        #
                #                    SHARK, DRIVERS                     #
                #        Core code/Algorithms in most modules           #
                #                                                       #
                #        Max Planck Institute fuer Kohlenforschung      #
                #                Kaiser Wilhelm Platz 1                 #
                #                 D-45470 Muelheim/Ruhr                 #
                #                      Germany                          #
                #                                                       #
                #                  All rights reserved                  #
                #                        -***-                          #
                #########################################################


                         Program Version 6.0.1  -  RELEASE   -


 With contributions from (in alphabetic order):
[Max-Planck-Institut fuer Kohlenforschung]                               
  Daniel Aravena         : Magnetic Suceptibility                        
  Michael Atanasov       : Ab Initio Ligand Field Theory (pilot matlab implementation)
  Alexander A. Auer      : GIAO ZORA, VPT2 properties, NMR spectrum      
  Ute Becker             : All parallelization in ORCA, NUMFREQ, NUMCALC 
  Giovanni Bistoni       : ED, misc. LED, open-shell LED, HFLD           
  Martin Brehm           : Molecular dynamics                            
  Dmytro Bykov           : pre 5.0 version of the SCF Hessian            
  Marcos Casanova-Páez   : Triplet and SCS-CIS(D). UHF-(DLPNO)-IP/EA/STEOM-CCSD. UHF-CVS-IP/STEOM-CCSD   
  Vijay G. Chilkuri      : MRCI spin determinant printing, contributions to CSF-ICE 
  Pauline Colinet        : FMM embedding                                 
  Dipayan Datta          : RHF DLPNO-CCSD density                        
  Achintya Kumar Dutta   : EOM-CC, STEOM-CC                              
  Nicolas Foglia         : Exact transition moments, OPA infrastructure, MCD improvements    
  Dmitry Ganyushin       : Spin-Orbit,Spin-Spin,Magnetic field MRCI      
  Miquel Garcia-Rates    : C-PCM and meta-GGA Hessian, CCSD/C-PCM, Gaussian charge scheme 
  Tiago L. C. Gouveia    : GS-ROHF, GS-ROCIS                             
  Yang Guo               : DLPNO-NEVPT2, F12-NEVPT2, CIM, IAO-localization        
  Andreas Hansen         : Spin unrestricted coupled pair/coupled cluster methods 
  Ingolf Harden          : AUTO-CI MPn and infrastructure                
  Benjamin Helmich-Paris : MC-RPA, TRAH-(SCF,CASSCF), AVAS, COSX integrals, SCF dyn. polar. 
  Lee Huntington         : MR-EOM, pCC                                   
  Robert Izsak           : Overlap fitted RIJCOSX, COSX-SCS-MP3, EOM     
  Riya Kayal             : Wick's Theorem for AUTO-CI, AUTO-CI UHF-CCSDT 
  Emily Kempfer          : AUTO-CI, RHF CISDT and CCSDT                  
  Christian Kollmar      : KDIIS, OOCD, Brueckner-CCSD(T), CCSD density, CASPT2, CASPT2-K, improved NEVPT2 
  Axel Koslowski         : Symmetry handling                             
  Simone Kossmann        : meta-GGA functionals, TD-DFT gradient, OOMP2, (MP2 Hessian; deprecated post 5.0) 
  Lucas Lang             : DCDCAS                                        
  Marvin Lechner         : AUTO-CI (C++ implementation), FIC-MRCC        
  Spencer Leger          : CASSCF response                               
  Dagmar Lenk            : GEPOL surface, SMD, ORCA-2-JSON               
  Dimitrios Liakos       : Extrapolation schemes; Compound Job, initial MDCI parallelization 
  Dimitrios Manganas     : Further ROCIS development; embedding schemes. LFT, Crystal Embedding 
  Dimitrios Pantazis     : SARC Basis sets                               
  Anastasios Papadopoulos: AUTO-CI, single reference methods and gradients 
  Taras Petrenko         : pre 6.0 DFT Hessian and TD-DFT gradient, (ASA, deprecated), ECA, 1-Electron XAS/XES, NRVS 
  Peter Pinski           : DLPNO-MP2, DLPNO-MP2 Gradient                 
  Christoph Reimann      : Effective Core Potentials                     
  Marius Retegan         : Local ZFS, SOC                                
  Christoph Riplinger    : Optimizer, TS searches, QM/MM, DLPNO-CCSD(T), (RO)-DLPNO pert. Triples 
  Michael Roemelt        : Original ROCIS implementation                 
  Masaaki Saitow         : Open-shell DLPNO-CCSD energy and density      
  Barbara Sandhoefer     : DKH picture change effects                    
  Kantharuban Sivalingam : CASSCF convergence/infrastructure, NEVPT2 and variants, FIC-MRCI 
  Bernardo de Souza      : ESD, SOC TD-DFT                               
  Georgi L. Stoychev     : AutoAux, RI-MP2 NMR, DLPNO-MP2 response, X2C  
  Van Anh Tran           : RI-MP2 g-tensors                              
  Willem Van den Heuvel  : Paramagnetic NMR                              
  Zikuan Wang            : NOTCH, Electric field optimization            
  Frank Wennmohs         : Technical directorship and infrastructure     
  Hang Xu                : AUTO-CI-Response properties                   
                                                                         
[FACCTs GmbH]                                                            
  Markus Bursch, Miquel Garcia-Rates, Christoph Riplinger, Bernardo de Souza, Georgi L. Stoychev 
                                                                 
  APM, Basis sets (HGBS, AHGBS, def-TZVP (Ac-Lr), def2-XVPD (La-Lu)), CI-OPT, improved COSX, DLPNO-Multilevel,           
  DOCKER, DRACO, updates on ESD, GOAT, IRC, LR-CPCM, MBIS, meta-GGA TD-DFT gradient, ML-optimized integration grids, 
  MM, NACMEs, nearIR, NEB, NEB-TS, NL-DFT gradient (VV10), 2- and 3-layer-ONIOM, interface openCOSMO-RS, QMMM,   
  Crystal-QMMM, SF, symmetry and pop. for TD-DFT, r2SCAN hybrids, SOLVATOR                                   
                                                                         
[Other institutions]                                                     
  V. Asgeirsson          : NEB                                           
  Christoph Bannwarth    : sTDA-DFT, sTD-DFT, PBEh-3c, B97-3c, D3        
  Sebastian Ehlert       : rSCAN, r2SCAN, r2SCAN-3c, D4, dhf basis sets  
  Marvin Friede          : D4 for Fr, Ra, Ac-Lr                          
  Lars Goerigk           : TD-DFT with DH, B97 family of functionals     
  Stefan Grimme          : VdW corrections, initial TS optimization, DFT functionals, gCP, sTDA/sTD-DF 
  Waldemar Hujo          : DFT-NL                                        
  H. Jonsson             : NEB                                           
  Holger Kruse           : gCP                                           
  Marcel Mueller         : wB97X-3c, vDZP basis set                      
  Hagen Neugebauer       : wr2SCAN                                       
  Tobias Risthaus        : range-separated hybrid DFT                    
  Lukas Wittmann         : regularized MP2, r2SCAN double-hybrids, wr2SCAN        
                                                                         
We gratefully acknowledge several colleagues who have allowed us to      
interface, adapt or use parts of their codes:                            
  Ed Valeev, F. Pavosevic, A. Kumar             : LibInt (2-el integral package), F12 methods 
  Garnet Chan, S. Sharma, J. Yang, R. Olivares  : DMRG                   
  Ulf Ekstrom                                   : XCFun DFT Library      
  Mihaly Kallay                                 : mrcc  (arbitrary order and MRCC methods)
  Frank Weinhold                                : gennbo (NPA and NBO analysis)           
  Simon Mueller                                 : openCOSMO-RS                            
  Christopher J. Cramer and Donald G. Truhlar   : smd solvation model                     
  S Lehtola, MJT Oliveira, MAL Marques          : LibXC Library                           
  Liviu Ungur et al                             : ANISO software                          


 Your calculation uses the libint2 library for the computation of 2-el integrals
 For citations please refer to: http://libint.valeyev.net

 Your ORCA version has been built with support for libXC version: 6.2.2
 For citations please refer to: https://libxc.gitlab.io

 This ORCA versions uses:
   CBLAS   interface :  Fast vector & matrix operations
   LAPACKE interface :  Fast linear algebra routines
   SCALAPACK package :  Parallel linear algebra routines
   Shared memory     :  Shared parallel matrices
   BLAS/LAPACK       :  OpenBLAS 0.3.27  USE64BITINT DYNAMIC_ARCH NO_AFFINITY SapphireRapids SINGLE_THREADED
        Core in use  :  SapphireRapids
   Copyright (c) 2011-2014, The OpenBLAS Project




***************************************
The coordinates will be read from file: /scratch/kx58/rs2200/dhdft/inputs/compas3D-xyzs/hc_c24h14_0pent_7.xyz
***************************************


Your calculation utilizes the atom-pairwise dispersion correction
based on EEQ partial charges (D4)


Warning: RI is on but no J-basis has been assigned. Assigning Def2/J (nothing to worry about!)
================================================================================

----- Orbital basis set information -----
Your calculation utilizes the basis: def2-QZVPP
   F. Weigend and R. Ahlrichs, Phys. Chem. Chem. Phys. 7, 3297 (2005).

----- AuxJ basis set information -----
Your calculation utilizes the auxiliary basis: def2/J
   F. Weigend, Phys. Chem. Chem. Phys. 8, 1057 (2006).

----- AuxC basis set information -----
Your calculation utilizes the auxiliary basis: def2-QZVPP/C
  H-La, Hf-Rn : A. Hellweg, C. Hattig, S. Hofener and W. Klopper, Theor. Chem. Acc. 117, 587 (2007).
        Ce-Lu : J. Chmela and M. E. Harding, Mol. Phys. (2018).

================================================================================
                                        WARNINGS
                       Please study these warnings very carefully!
================================================================================


WARNING: No MP2 level density has been requested!
         To calculate MP2 level properties use
         %mp2 Density relaxed end
         or
         %mp2 Density unrelaxed end
         Otherwise for double-hybrid DFT only the energy is correct!

================================================================================
                                       INPUT FILE
================================================================================
NAME = compas3D_hc_c24h14_0pent_7_qz_ri.inp
|  1> ! RKS revDSD-PBEP86-D4/2021 defgrid3  NOPOP NoFrozencore NoUseSym
|  2> 
|  3> %basis
|  4> Basis "def2-QZVPP"
|  5> 
|  6> AuxC "def2-QZVPP/C"
|  7> end
|  8> 
|  9> %method
| 10> ScalHFX 0.69
| 11> ScalDFX 0.31
| 12> ScalDFC 0.4038
| 13> ScalLDAC 0.4038
| 14> 
| 15> D4S6 0.4612
| 16> D4S8 0.0
| 17> D4A1 0.44
| 18> D4A2 3.60
| 19> end
| 20> 
| 21> %mp2
| 22> PS 0.5979
| 23> PT 0.0571
| 24> end
| 25> 
| 26> %pal
| 27> nprocs 104
| 28> end
| 29> 
| 30> *XYZFILE 0 1 /scratch/kx58/rs2200/dhdft/inputs/compas3D-xyzs/hc_c24h14_0pent_7.xyz
| 31> 
| 32>                          ****END OF INPUT****
================================================================================

                       ****************************
                       * Single Point Calculation *
                       ****************************

---------------------------------
CARTESIAN COORDINATES (ANGSTROEM)
---------------------------------
  C      0.850136    0.859615    0.006749
  C     -0.513850    1.227925   -0.003217
  C     -0.899554    2.605163   -0.004564
  C      0.090667    3.621027    0.004480
  C      1.466996    3.223503    0.015054
  C      1.826343    1.914474    0.016037
  C      1.210337   -0.525301    0.007569
  C      0.196455   -1.519092   -0.000175
  C     -1.150592   -1.115272   -0.010284
  C     -1.522817    0.216864   -0.012187
  C     -2.910127    0.615120   -0.022881
  C     -3.268553    1.917663   -0.024082
  C     -2.276411    2.966044   -0.014913
  C     -2.626651    4.316642   -0.015967
  C     -1.647136    5.309436   -0.007082
  C     -0.303850    4.968294    0.003009
  C      2.583861   -0.945097    0.015580
  C      2.929316   -2.254668    0.016432
  C      1.936573   -3.288365    0.010232
  C      0.566770   -2.930873    0.002224
  C      2.308934   -4.649907    0.012304
  C      1.357308   -5.644028    0.006994
  C     -0.004239   -5.297209   -0.000454
  C     -0.386707   -3.972650   -0.002783
  H      2.233445    4.001802    0.022681
  H      2.886112    1.666864    0.024559
  H     -1.943832   -1.861653   -0.017464
  H     -3.669472   -0.170173   -0.030057
  H     -4.322532    2.204104   -0.032076
  H     -3.683894    4.591256   -0.023834
  H     -1.942058    6.360704   -0.008060
  H      0.463374    5.745827    0.010062
  H      3.373811   -0.196665    0.020603
  H      3.982008   -2.545631    0.022049
  H      3.372111   -4.901226    0.018312
  H      1.655647   -6.694224    0.008687
  H     -0.765474   -6.079947   -0.004320
  H     -1.450452   -3.739345   -0.008217

----------------------------
CARTESIAN COORDINATES (A.U.)
----------------------------
  NO LB      ZA    FRAG     MASS         X           Y           Z
   0 C     6.0000    0    12.011    1.606523    1.624437    0.012753
   1 C     6.0000    0    12.011   -0.971036    2.320443   -0.006080
   2 C     6.0000    0    12.011   -1.699911    4.923044   -0.008625
   3 C     6.0000    0    12.011    0.171335    6.842749    0.008465
   4 C     6.0000    0    12.011    2.772220    6.091537    0.028448
   5 C     6.0000    0    12.011    3.451288    3.617831    0.030306
   6 C     6.0000    0    12.011    2.287205   -0.992676    0.014303
   7 C     6.0000    0    12.011    0.371246   -2.870668   -0.000330
   8 C     6.0000    0    12.011   -2.174304   -2.107558   -0.019434
   9 C     6.0000    0    12.011   -2.877708    0.409813   -0.023029
  10 C     6.0000    0    12.011   -5.499344    1.162408   -0.043238
  11 C     6.0000    0    12.011   -6.176670    3.623858   -0.045508
  12 C     6.0000    0    12.011   -4.301793    5.605011   -0.028182
  13 C     6.0000    0    12.011   -4.963651    8.157271   -0.030173
  14 C     6.0000    0    12.011   -3.112636   10.033381   -0.013383
  15 C     6.0000    0    12.011   -0.574194    9.388715    0.005687
  16 C     6.0000    0    12.011    4.882789   -1.785975    0.029442
  17 C     6.0000    0    12.011    5.535605   -4.260704    0.031053
  18 C     6.0000    0    12.011    3.659592   -6.214109    0.019336
  19 C     6.0000    0    12.011    1.071039   -5.538547    0.004203
  20 C     6.0000    0    12.011    4.363252   -8.787051    0.023250
  21 C     6.0000    0    12.011    2.564940  -10.665667    0.013216
  22 C     6.0000    0    12.011   -0.008010  -10.010274   -0.000858
  23 C     6.0000    0    12.011   -0.730770   -7.507221   -0.005260
  24 H     1.0000    0     1.008    4.220599    7.562309    0.042862
  25 H     1.0000    0     1.008    5.453962    3.149916    0.046409
  26 H     1.0000    0     1.008   -3.673311   -3.518015   -0.033002
  27 H     1.0000    0     1.008   -6.934297   -0.321580   -0.056800
  28 H     1.0000    0     1.008   -8.168401    4.165152   -0.060614
  29 H     1.0000    0     1.008   -6.961550    8.676217   -0.045039
  30 H     1.0000    0     1.008   -3.669958   12.019988   -0.015232
  31 H     1.0000    0     1.008    0.875651   10.858039    0.019014
  32 H     1.0000    0     1.008    6.375579   -0.371642    0.038934
  33 H     1.0000    0     1.008    7.524905   -4.810546    0.041666
  34 H     1.0000    0     1.008    6.372366   -9.261976    0.034605
  35 H     1.0000    0     1.008    3.128719  -12.650250    0.016416
  36 H     1.0000    0     1.008   -1.446536  -11.489435   -0.008164
  37 H     1.0000    0     1.008   -2.740957   -7.066338   -0.015527

--------------------------------
INTERNAL COORDINATES (ANGSTROEM)
--------------------------------
 C      0   0   0     0.000000000000     0.00000000     0.00000000
 C      1   0   0     1.412872477151     0.00000000     0.00000000
 C      2   1   0     1.430228056080   120.75572653     0.00000000
 C      3   2   1     1.418660886107   120.08604362     0.00000000
 C      4   3   2     1.432626536248   118.15895884     0.00000000
 C      5   4   3     1.357456653350   121.46006066     0.00000000
 C      1   2   3     1.430992450955   119.68933838   180.01492968
 C      7   1   2     1.419730886010   119.84696031   359.93259884
 C      8   7   1     1.406310059285   118.88686277     0.08085188
 C      9   8   7     1.383163162818   122.29890744   359.96251554
 C     10   9   8     1.443381830277   121.62834154   179.98743872
 C     11  10   9     1.350958550688   121.40221111   179.96943256
 C      3   2   1     1.423403173425   120.33193696   179.98711671
 C     13   3   2     1.395271590649   119.22450854   179.99775258
 C     14  13   3     1.394693493873   120.84689589     0.00000000
 C     15  14  13     1.385964039087   120.36607713     0.00000000
 C      7   1   2     1.436266206293   121.57358395   179.90844249
 C     17   7   1     1.354368577431   121.77221187   179.99764147
 C     18  17   7     1.433215814155   121.37966976   359.95873370
 C     19  18  17     1.415706760610   119.21618487     0.03928755
 C     19  18  17     1.411543299137   120.86149256   180.05266663
 C     21  19  18     1.376189219740   120.95496720   179.96920660
 C     22  21  19     1.405043460441   119.45878415     0.00000000
 C     23  22  21     1.378674503681   120.39695534     0.00000000
 H      5   4   3     1.092360820217   118.45196073   180.03793908
 H      6   5   4     1.088344535855   118.50075110   180.01752579
 H      9   8   7     1.089204954996   120.05704302   179.93165010
 H     11  10   9     1.092401183007   118.02201306   359.96841075
 H     12  11  10     1.092237728969   120.58912701   180.00923660
 H     14  13   3     1.092353898722   119.09797336   180.00498095
 H     15  14  13     1.091853014081   119.71380709   180.00095658
 H     16  15  14     1.092355849221   120.36955273   180.00568106
 H     17   7   1     1.088208742884   119.55181430   359.96490772
 H     18  17   7     1.092177489232   120.22812856   179.96638431
 H     21  19  18     1.092494002511   118.59526136   359.97403729
 H     22  21  19     1.091751097927   120.39169690   180.00203143
 H     23  22  21     1.091866548818   119.91194523   180.02302863
 H     24  23  22     1.089042829469   118.47675335   180.02265424

---------------------------
INTERNAL COORDINATES (A.U.)
---------------------------
 C      0   0   0     0.000000000000     0.00000000     0.00000000
 C      1   0   0     2.669942043970     0.00000000     0.00000000
 C      2   1   0     2.702739335042   120.75572653     0.00000000
 C      3   2   1     2.680880551648   120.08604362     0.00000000
 C      4   3   2     2.707271805696   118.15895884     0.00000000
 C      5   4   3     2.565221313501   121.46006066     0.00000000
 C      1   2   3     2.704183832014   119.68933838   180.01492968
 C      7   1   2     2.682902558427   119.84696031   359.93259884
 C      8   7   1     2.657540871428   118.88686277     0.08085188
 C      9   8   7     2.613799576254   122.29890744   359.96251554
 C     10   9   8     2.727596365902   121.62834154   179.98743872
 C     11  10   9     2.552941679080   121.40221111   179.96943256
 C      3   2   1     2.689842175927   120.33193696   179.98711671
 C     13   3   2     2.636681188766   119.22450854   179.99775258
 C     14  13   3     2.635588744181   120.84689589     0.00000000
 C     15  14  13     2.619092465337   120.36607713     0.00000000
 C      7   1   2     2.714149785301   121.57358395   179.90844249
 C     17   7   1     2.559385695733   121.77221187   179.99764147
 C     18  17   7     2.708385379558   121.37966976   359.95873370
 C     19  18  17     2.675298063494   119.21618487     0.03928755
 C     19  18  17     2.667430261540   120.86149256   180.05266663
 C     21  19  18     2.600620733763   120.95496720   179.96920660
 C     22  21  19     2.655147346490   119.45878415     0.00000000
 C     23  22  21     2.605317239778   120.39695534     0.00000000
 H      5   4   3     2.064262789635   118.45196073   180.03793908
 H      6   5   4     2.056673112116   118.50075110   180.01752579
 H      9   8   7     2.058299068652   120.05704302   179.93165010
 H     11  10   9     2.064339064256   118.02201306   359.96841075
 H     12  11  10     2.064030180887   120.58912701   180.00923660
 H     14  13   3     2.064249709907   119.09797336   180.00498095
 H     15  14  13     2.063303175110   119.71380709   180.00095658
 H     16  15  14     2.064253395814   120.36955273   180.00568106
 H     17   7   1     2.056416500590   119.55181430   359.96490772
 H     18  17   7     2.063916344281   120.22812856   179.96638431
 H     21  19  18     2.064514467698   118.59526136   359.97403729
 H     22  21  19     2.063110581489   120.39169690   180.00203143
 H     23  22  21     2.063328752056   119.91194523   180.02302863
 H     24  23  22     2.057992695807   118.47675335   180.02265424

---------------------
BASIS SET INFORMATION
---------------------
There are 2 groups of distinct atoms

 Group   1 Type C   : 15s8p3d2f1g contracted to 7s4p3d2f1g pattern {8211111/5111/111/11/1}
 Group   2 Type H   : 7s3p2d1f contracted to 4s3p2d1f pattern {4111/111/11/1}

Atom   0C    basis set group =>   1
Atom   1C    basis set group =>   1
Atom   2C    basis set group =>   1
Atom   3C    basis set group =>   1
Atom   4C    basis set group =>   1
Atom   5C    basis set group =>   1
Atom   6C    basis set group =>   1
Atom   7C    basis set group =>   1
Atom   8C    basis set group =>   1
Atom   9C    basis set group =>   1
Atom  10C    basis set group =>   1
Atom  11C    basis set group =>   1
Atom  12C    basis set group =>   1
Atom  13C    basis set group =>   1
Atom  14C    basis set group =>   1
Atom  15C    basis set group =>   1
Atom  16C    basis set group =>   1
Atom  17C    basis set group =>   1
Atom  18C    basis set group =>   1
Atom  19C    basis set group =>   1
Atom  20C    basis set group =>   1
Atom  21C    basis set group =>   1
Atom  22C    basis set group =>   1
Atom  23C    basis set group =>   1
Atom  24H    basis set group =>   2
Atom  25H    basis set group =>   2
Atom  26H    basis set group =>   2
Atom  27H    basis set group =>   2
Atom  28H    basis set group =>   2
Atom  29H    basis set group =>   2
Atom  30H    basis set group =>   2
Atom  31H    basis set group =>   2
Atom  32H    basis set group =>   2
Atom  33H    basis set group =>   2
Atom  34H    basis set group =>   2
Atom  35H    basis set group =>   2
Atom  36H    basis set group =>   2
Atom  37H    basis set group =>   2
---------------------------------
AUXILIARY/J BASIS SET INFORMATION
---------------------------------
There are 2 groups of distinct atoms

 Group   1 Type C   : 12s5p4d2f1g contracted to 6s4p3d1f1g pattern {711111/2111/211/2/1}
 Group   2 Type H   : 5s2p1d contracted to 3s1p1d pattern {311/2/1}

Atom   0C    basis set group =>   1
Atom   1C    basis set group =>   1
Atom   2C    basis set group =>   1
Atom   3C    basis set group =>   1
Atom   4C    basis set group =>   1
Atom   5C    basis set group =>   1
Atom   6C    basis set group =>   1
Atom   7C    basis set group =>   1
Atom   8C    basis set group =>   1
Atom   9C    basis set group =>   1
Atom  10C    basis set group =>   1
Atom  11C    basis set group =>   1
Atom  12C    basis set group =>   1
Atom  13C    basis set group =>   1
Atom  14C    basis set group =>   1
Atom  15C    basis set group =>   1
Atom  16C    basis set group =>   1
Atom  17C    basis set group =>   1
Atom  18C    basis set group =>   1
Atom  19C    basis set group =>   1
Atom  20C    basis set group =>   1
Atom  21C    basis set group =>   1
Atom  22C    basis set group =>   1
Atom  23C    basis set group =>   1
Atom  24H    basis set group =>   2
Atom  25H    basis set group =>   2
Atom  26H    basis set group =>   2
Atom  27H    basis set group =>   2
Atom  28H    basis set group =>   2
Atom  29H    basis set group =>   2
Atom  30H    basis set group =>   2
Atom  31H    basis set group =>   2
Atom  32H    basis set group =>   2
Atom  33H    basis set group =>   2
Atom  34H    basis set group =>   2
Atom  35H    basis set group =>   2
Atom  36H    basis set group =>   2
Atom  37H    basis set group =>   2
---------------------------------
AUXILIARY/C BASIS SET INFORMATION
---------------------------------
There are 2 groups of distinct atoms

 Group   1 Type C   : 9s8p7d5f3g1h contracted to 9s8p7d5f3g1h pattern {111111111/11111111/1111111/11111/111/1}
 Group   2 Type H   : 6s4p3d2f1g contracted to 6s4p3d2f1g pattern {111111/1111/111/11/1}

Atom   0C    basis set group =>   1
Atom   1C    basis set group =>   1
Atom   2C    basis set group =>   1
Atom   3C    basis set group =>   1
Atom   4C    basis set group =>   1
Atom   5C    basis set group =>   1
Atom   6C    basis set group =>   1
Atom   7C    basis set group =>   1
Atom   8C    basis set group =>   1
Atom   9C    basis set group =>   1
Atom  10C    basis set group =>   1
Atom  11C    basis set group =>   1
Atom  12C    basis set group =>   1
Atom  13C    basis set group =>   1
Atom  14C    basis set group =>   1
Atom  15C    basis set group =>   1
Atom  16C    basis set group =>   1
Atom  17C    basis set group =>   1
Atom  18C    basis set group =>   1
Atom  19C    basis set group =>   1
Atom  20C    basis set group =>   1
Atom  21C    basis set group =>   1
Atom  22C    basis set group =>   1
Atom  23C    basis set group =>   1
Atom  24H    basis set group =>   2
Atom  25H    basis set group =>   2
Atom  26H    basis set group =>   2
Atom  27H    basis set group =>   2
Atom  28H    basis set group =>   2
Atom  29H    basis set group =>   2
Atom  30H    basis set group =>   2
Atom  31H    basis set group =>   2
Atom  32H    basis set group =>   2
Atom  33H    basis set group =>   2
Atom  34H    basis set group =>   2
Atom  35H    basis set group =>   2
Atom  36H    basis set group =>   2
Atom  37H    basis set group =>   2


           ************************************************************
           *        Program running with 104 parallel MPI-processes   *
           *              working on a common directory               *
           ************************************************************
------------------------------------------------------------------------------
                             ORCA STARTUP CALCULATIONS
                           -- RI-GTO INTEGRALS CHOSEN --
------------------------------------------------------------------------------
------------------------------------------------------------------------------
                   ___                                                        
                  /   \      - P O W E R E D   B Y -                         
                 /     \                                                     
                 |  |  |   _    _      __       _____    __    __             
                 |  |  |  | |  | |    /  \     |  _  \  |  |  /  |          
                  \  \/   | |  | |   /    \    | | | |  |  | /  /          
                 / \  \   | |__| |  /  /\  \   | |_| |  |  |/  /          
                |  |  |   |  __  | /  /__\  \  |    /   |      \           
                |  |  |   | |  | | |   __   |  |    \   |  |\   \          
                \     /   | |  | | |  |  |  |  | |\  \  |  | \   \       
                 \___/    |_|  |_| |__|  |__|  |_| \__\ |__|  \__/        
                                                                              
                      - O R C A' S   B I G   F R I E N D -                    
                                      &                                       
                       - I N T E G R A L  F E E D E R -                       
                                                                              
 v1 FN, 2020, v2 2021, v3 2022-2024                                           
------------------------------------------------------------------------------


----------------------
SHARK INTEGRAL PACKAGE
----------------------

Number of atoms                             ...     38
Number of basis functions                   ...   1788
Number of shells                            ...    548
Maximum angular momentum                    ...      4
Integral batch strategy                     ... SHARK/LIBINT Hybrid
RI-J (if used) integral strategy            ... SPLIT-RIJ (Revised 2003 algorithm where possible)
Printlevel                                  ...      1
Contraction scheme used                     ... SEGMENTED contraction
Prescreening option                         ... SCHWARTZ
   Thresh                                   ... 1.000e-10
   Tcut                                     ... 1.000e-11
   Tpresel                                  ... 1.000e-11 
Coulomb Range Separation                    ... NOT USED
Exchange Range Separation                   ... NOT USED
Multipole approximations                    ... NOT USED
Finite Nucleus Model                        ... NOT USED
CABS basis                                  ... NOT available
Auxiliary Coulomb fitting basis             ... AVAILABLE
   # of basis functions in Aux-J            ...   1330
   # of shells in Aux-J                     ...    430
   Maximum angular momentum in Aux-J        ...      4
Auxiliary J/K fitting basis                 ... NOT available
Auxiliary Correlation fitting basis         ... AVAILABLE
   # of basis functions in Aux-C            ...   4168
   # of shells in Aux-C                     ...   1016
   Maximum angular momentum in Aux-C        ...      5
Auxiliary 'external' fitting basis          ... NOT available

Checking pre-screening integrals            ... done (  0.0 sec) Dimension = 548
Check shell pair data                       ... done (  0.0 sec)
Shell pair information
Shell pair cut-off parameter TPreSel        ...   1.0e-11
Total number of shell pairs                 ...    150426
Shell pairs after pre-screening             ...     88044
Total number of primitive shell pairs       ...    386901
Primitive shell pairs kept                  ...    156563
          la=0 lb=0:  13364 shell pairs
          la=1 lb=0:  19775 shell pairs
          la=1 lb=1:   6890 shell pairs
          la=2 lb=0:  12049 shell pairs
          la=2 lb=1:   8943 shell pairs
          la=2 lb=2:   2870 shell pairs
          la=3 lb=0:   7244 shell pairs
          la=3 lb=1:   5360 shell pairs
          la=3 lb=2:   3262 shell pairs
          la=3 lb=3:   1012 shell pairs
          la=4 lb=0:   2877 shell pairs
          la=4 lb=1:   2128 shell pairs
          la=4 lb=2:   1316 shell pairs
          la=4 lb=3:    781 shell pairs
          la=4 lb=4:    173 shell pairs

Calculating one electron integrals          ... done (  1.1 sec)
Calculating RI/J V-Matrix + Cholesky decomp.... done (  0.3 sec)
Calculating RI/C V-Matrix + Cholesky decomp.... done (  1.0 sec)
Calculating Nuclear repulsion               ... done (  0.0 sec) ENN=   1776.232204722031 Eh

Diagonalization of the overlap matrix:
Smallest eigenvalue                        ... 9.345e-07
Time for diagonalization                   ...    0.549 sec
Threshold for overlap eigenvalues          ... 1.000e-07
Number of eigenvalues below threshold      ... 0

IMPORTANT:
Smallest eigenvalue of S below the DiffSThresh (1.000e-06) while
Thresh>1e-12 and/or TCut>1e-13! In order to avoid SCF convergence issues,
Thresh will be set to at least 1e-12 and TCut to at least 1e-13.
This can be turned off by adding %SCF DiffSThresh -1 END to the input.

Time for construction of square roots      ...    0.349 sec
Total time needed                          ...    0.950 sec

-------------------
DFT GRID GENERATION
-------------------

General Integration Accuracy     IntAcc      ... 4.959
Radial Grid Type                 RadialGrid  ... OptM3 with GC (2021)
Angular Grid (max. ang.)         AngularGrid ... 6 (Lebedev-590)
Angular grid pruning method      GridPruning ... 4 (adaptive)
Weight generation scheme         WeightScheme... mBecke (2022)
Basis function cutoff            BFCut       ... 1.0000e-10
Integration weight cutoff        WCut        ... 1.0000e-14
Partially contracted basis set               ... off
Rotationally invariant grid construction     ... off
Angular grids for H and He will be reduced by one unit
Diffuse basis detected: some atoms will have their outermost
                        angular grid increased by 1.

Total number of grid points                  ...   468313
Total number of batches                      ...     7337
Average number of points per batch           ...       63
Average number of grid points per atom       ...    12324

--------------------
COSX GRID GENERATION
--------------------

GRIDX 1
-------
General Integration Accuracy     IntAcc      ... 4.020
Radial Grid Type                 RadialGrid  ... OptM3 with GC (2021)
Angular Grid (max. ang.)         AngularGrid ... 2 (Lebedev-110)
Angular grid pruning method      GridPruning ... 4 (adaptive)
Weight generation scheme         WeightScheme... mBecke (2022)
Basis function cutoff            BFCut       ... 1.0000e-10
Integration weight cutoff        WCut        ... 1.0000e-14
Partially contracted basis set               ... on
Rotationally invariant grid construction     ... off
Angular grids for H and He will be reduced by one unit
Diffuse basis detected: some atoms will have their outermost
                        angular grid increased by 1.

Total number of grid points                  ...    58240
Total number of batches                      ...      473
Average number of points per batch           ...      123
Average number of grid points per atom       ...     1533
UseSFitting                                  ... on

GRIDX 2
-------
General Integration Accuracy     IntAcc      ... 4.338
Radial Grid Type                 RadialGrid  ... OptM3 with GC (2021)
Angular Grid (max. ang.)         AngularGrid ... 3 (Lebedev-194)
Angular grid pruning method      GridPruning ... 4 (adaptive)
Weight generation scheme         WeightScheme... mBecke (2022)
Basis function cutoff            BFCut       ... 1.0000e-10
Integration weight cutoff        WCut        ... 1.0000e-14
Partially contracted basis set               ... on
Rotationally invariant grid construction     ... off
Angular grids for H and He will be reduced by one unit
Diffuse basis detected: some atoms will have their outermost
                        angular grid increased by 1.

Total number of grid points                  ...   125507
Total number of batches                      ...      996
Average number of points per batch           ...      126
Average number of grid points per atom       ...     3303
UseSFitting                                  ... on

GRIDX 3
-------
General Integration Accuracy     IntAcc      ... 4.871
Radial Grid Type                 RadialGrid  ... OptM3 with GC (2021)
Angular Grid (max. ang.)         AngularGrid ... 4 (Lebedev-302)
Angular grid pruning method      GridPruning ... 4 (adaptive)
Weight generation scheme         WeightScheme... mBecke (2022)
Basis function cutoff            BFCut       ... 1.0000e-10
Integration weight cutoff        WCut        ... 1.0000e-14
Partially contracted basis set               ... on
Rotationally invariant grid construction     ... off
Angular grids for H and He will be reduced by one unit
Diffuse basis detected: some atoms will have their outermost
                        angular grid increased by 1.

Total number of grid points                  ...   228941
Total number of batches                      ...     1807
Average number of points per batch           ...      126
Average number of grid points per atom       ...     6025
UseSFitting                                  ... on
Initializing property integral containers    ... done (  0.0 sec)

SHARK setup successfully completed in  14.0 seconds

Maximum memory used throughout the entire STARTUP-calculation: 217.1 MB


           ************************************************************
           *        Program running with 104 parallel MPI-processes   *
           *              working on a common directory               *
           ************************************************************
-------------------------------------------------------------------------------
                                 ORCA GUESS
                   Start orbitals & Density for SCF / CASSCF
-------------------------------------------------------------------------------

------------
SCF SETTINGS
------------
Hamiltonian:
 Density Functional     Method          .... DFT(GTOs)
 Exchange Functional    Exchange        .... PBE
   PBE kappa parameter   XKappa         ....  0.804000
   PBE mue parameter    XMuePBE         ....  0.219520
 Correlation Functional Correlation     .... P86
 LDA part of GGA corr.  LDAOpt          .... VWN-5
 Gradients option       PostSCFGGA      .... off
 Hybrid DFT is turned on
   Fraction HF Exchange ScalHFX         ....  0.690000
   Scaling of DF-GGA-X  ScalDFX         ....  0.310000
   Scaling of DF-GGA-C  ScalDFC         ....  0.403800
   Scaling of DF-LDA-C  ScalLDAC        ....  0.403800
   Perturbative correction              ....  1.000000
 RI-approximation to the Coulomb term is turned on
   Number of AuxJ basis functions       .... 1330
   RIJ-COSX (HFX calculated with COS-X)).... on


General Settings:
 Integral files         IntName         .... compas3D_hc_c24h14_0pent_7_qz_ri
 Hartree-Fock type      HFTyp           .... RHF
 Total Charge           Charge          ....    0
 Multiplicity           Mult            ....    1
 Number of Electrons    NEL             ....  158
 Basis Dimension        Dim             .... 1788
 Nuclear Repulsion      ENuc            ....   1776.2322047220 Eh

Convergence Acceleration:
 AO-DIIS                CNVDIIS         .... on
   Start iteration      DIISMaxIt       ....    12
   Startup error        DIISStart       ....  0.200000
   # of expansion vecs  DIISMaxEq       ....     5
   Bias factor          DIISBfac        ....   1.050
   Max. coefficient     DIISMaxC        ....  10.000
 MO-DIIS                CNVKDIIS        .... off
 Trust-Rad. Augm. Hess. CNVTRAH         .... auto
   Auto Start mean grad. ratio tolernc. ....  1.125000
   Auto Start start iteration           ....    50
   Auto Start num. interpolation iter.  ....    10
   Max. Number of Micro iterations      ....    24
   Max. Number of Macro iterations      .... Maxiter - #DIIS iter
   Number of Davidson start vectors     ....     2
   Converg. threshold    (grad. norm)   ....   5.000e-05
   Grad. Scal. Fac. for Micro threshold ....   0.100
   Minimum threshold for Micro iter.    ....   1.000e-02
   NR start threshold (gradient norm)   ....   1.000e-04
   Initial trust radius                 ....   0.400
   Minimum AH scaling param. (alpha)    ....   1.000
   Maximum AH scaling param. (alpha)    .... 1000.000
   Quad. conv. algorithm                .... NR
   White noise on init. David. guess    .... on
   Maximum white noise                  ....   0.010
   Pseudo random numbers                .... off
   Inactive MOs                         .... canonical
   Orbital update algorithm             .... Taylor
   Preconditioner                       .... Diag
   Full preconditioner red. dimension   ....   250
 SOSCF                  CNVSOSCF        .... on
   Start iteration      SOSCFMaxIt      ....   150
   Startup grad/error   SOSCFStart      ....  0.003300
   Hessian update       SOSCFHessUp     .... L-BFGS
 Level Shifting         CNVShift        .... on
   Level shift para.    LevelShift      ....    0.2500
   Turn off err/grad.   ShiftErr        ....    0.0010
 Zerner damping         CNVZerner       .... off
 Static damping         CNVDamp         .... on
   Fraction old density DampFac         ....    0.7000
   Max. Damping (<1)    DampMax         ....    0.9800
   Min. Damping (>=0)   DampMin         ....    0.0000
   Turn off err/grad.   DampErr         ....    0.1000

SCF Procedure:
 Maximum # iterations   MaxIter         ....   125
 SCF integral mode      SCFMode         .... Direct
   Integral package                     .... SHARK and LIBINT hybrid scheme
 Reset frequency        DirectResetFreq ....    20
 Integral Threshold     Thresh          ....  1.000e-12 Eh
 Primitive CutOff       TCut            ....  1.000e-13 Eh

Convergence Tolerance:
 Convergence Check Mode ConvCheckMode   .... Total+1el-Energy
 Convergence forced     ConvForced      .... 0
 Energy Change          TolE            ....  1.000e-06 Eh
 1-El. energy change                    ....  1.000e-03 Eh
 Orbital Gradient       TolG            ....  5.000e-05
 Orbital Rotation angle TolX            ....  5.000e-05
 DIIS Error             TolErr          ....  1.000e-06

------------------------------
INITIAL GUESS: MODEL POTENTIAL
------------------------------
Loading Hartree-Fock densities                     ... done
Calculating cut-offs                               ... done
Initializing the effective Hamiltonian             ... done
Setting up the integral package (SHARK)            ... done
Starting the Coulomb interaction                   ... done (   0.3 sec)
Making the grid                                    ... done (   0.3 sec)
Mapping shells                                     ... done
Starting the XC term evaluation                    ... done (   0.1 sec)
  promolecular density results
     # of electrons  =    158.023406243
     EX              =   -126.963144835
     EC              =      0.208523566
     EX+EC           =   -126.754621269
Transforming the Hamiltonian                       ... done (   0.3 sec)
Diagonalizing the Hamiltonian                      ... done (   0.4 sec)
Back transforming the eigenvectors                 ... done (   0.2 sec)
Now organizing SCF variables                       ... done
                      ------------------
                      INITIAL GUESS DONE (   1.9 sec)
                      ------------------
             **** ENERGY FILE WAS UPDATED (compas3D_hc_c24h14_0pent_7_qz_ri.en.tmp) ****
Finished Guess after  17.4 sec
Maximum memory used throughout the entire GUESS-calculation: 194.6 MB


           ************************************************************
           *        Program running with 104 parallel MPI-processes   *
           *              working on a common directory               *
           ************************************************************

-------------------------------------------------------------------------------------------
                                      ORCA LEAN-SCF
                              memory conserving SCF solver
-------------------------------------------------------------------------------------------

----------------------------------------D-I-I-S--------------------------------------------
Iteration    Energy (Eh)           Delta-E    RMSDP     MaxDP     DIISErr   Damp  Time(sec)
-------------------------------------------------------------------------------------------
               ***  Starting incremental Fock matrix formation  ***
    1    -919.0679924906219185     0.00e+00  2.80e-04  2.20e-02  1.46e-01  0.700  12.4
    2    -919.2470537969577435    -1.79e-01  2.22e-04  1.69e-02  9.18e-02  0.700  12.4
                               ***Turning on AO-DIIS***
    3    -919.3536698075133700    -1.07e-01  1.57e-04  1.51e-02  5.63e-02  0.700   8.2
    4    -919.4204071728061081    -6.67e-02  3.80e-04  3.76e-02  3.86e-02  0.000   7.8
    5    -919.5665568711690412    -1.46e-01  2.71e-05  2.67e-03  3.77e-03  0.000   8.0
                              *** Initializing SOSCF ***
---------------------------------------S-O-S-C-F--------------------------------------
Iteration    Energy (Eh)           Delta-E    RMSDP     MaxDP     MaxGrad    Time(sec)
--------------------------------------------------------------------------------------
    6    -919.5668607099485143    -3.04e-04  1.11e-05  8.97e-04  1.27e-03     8.7
               *** Restarting incremental Fock matrix formation ***
    7    -919.5669842557165339    -1.24e-04  7.42e-05  5.60e-03  7.56e-04    11.4
    8    -919.5670201670279766    -3.59e-05  4.22e-05  3.20e-03  4.25e-04    10.0
    9    -919.5670282309481536    -8.06e-06  3.78e-05  2.89e-03  2.82e-04     9.8
   10    -919.5670321720128868    -3.94e-06  3.49e-06  2.74e-04  2.49e-05     9.6
   11    -919.5670322616176691    -8.96e-08  1.76e-06  1.27e-04  2.49e-05     9.0
                 **** Energy Check signals convergence ****

               *****************************************************
               *                     SUCCESS                       *
               *           SCF CONVERGED AFTER  11 CYCLES          *
               *****************************************************

Recomputing exchange energy using gridx3       ... done (   13.856 sec)
Old exchange energy                            :    -89.434534709 Eh
New exchange energy                            :    -89.434557006 Eh
Exchange energy change after final integration :     -0.000022297 Eh
Total energy after final integration           :   -919.567054559 Eh
             **** ENERGY FILE WAS UPDATED (compas3D_hc_c24h14_0pent_7_qz_ri.en.tmp) ****

----------------
TOTAL SCF ENERGY
----------------

Total Energy       :       -919.56705455862266 Eh          -25022.69168 eV

Components:
Nuclear Repulsion  :       1776.23220472203070 Eh           48333.73553 eV
Electronic Energy  :      -2695.79923698364837 Eh          -73356.42661 eV
One Electron Energy:      -4772.99360313226407 Eh         -129879.75890 eV
Two Electron Energy:       2077.19436614861570 Eh           56523.33229 eV

Virial components:
Potential Energy   :      -1836.37265819942127 Eh          -49970.24047 eV
Kinetic Energy     :        916.80560364079861 Eh           24947.54878 eV
Virial Ratio       :          2.00301203538335

DFT components:
N(Alpha)           :       79.000029419865 electrons
N(Beta)            :       79.000029419865 electrons
N(Total)           :      158.000058839730 electrons
E(X)               :      -40.013206315824 Eh       
E(C)               :       -2.350285878127 Eh       
E(XC)              :      -42.363492193951 Eh       

---------------
SCF CONVERGENCE
---------------

  Last Energy change         ...    8.9605e-08  Tolerance :   1.0000e-06
  Last MAX-Density change    ...    1.2725e-04  Tolerance :   1.0000e-05
  Last RMS-Density change    ...    1.7559e-06  Tolerance :   1.0000e-06
  Last DIIS Error            ...    1.2698e-03  Tolerance :   1.0000e-06
  Last Orbital Gradient      ...    2.4922e-05  Tolerance :   5.0000e-05
  Last Orbital Rotation      ...    6.4071e-05  Tolerance :   5.0000e-05


----------------
ORBITAL ENERGIES
----------------

  NO   OCC          E(Eh)            E(eV) 
   0   2.0000     -10.839989      -294.9711 
   1   2.0000     -10.839541      -294.9589 
   2   2.0000     -10.838756      -294.9376 
   3   2.0000     -10.838053      -294.9184 
   4   2.0000     -10.835948      -294.8611 
   5   2.0000     -10.835691      -294.8541 
   6   2.0000     -10.835111      -294.8384 
   7   2.0000     -10.834808      -294.8301 
   8   2.0000     -10.834083      -294.8104 
   9   2.0000     -10.833907      -294.8056 
  10   2.0000     -10.828735      -294.6649 
  11   2.0000     -10.828433      -294.6566 
  12   2.0000     -10.827434      -294.6294 
  13   2.0000     -10.827269      -294.6250 
  14   2.0000     -10.827198      -294.6230 
  15   2.0000     -10.826697      -294.6094 
  16   2.0000     -10.826686      -294.6091 
  17   2.0000     -10.826312      -294.5989 
  18   2.0000     -10.826182      -294.5954 
  19   2.0000     -10.825712      -294.5826 
  20   2.0000     -10.825603      -294.5796 
  21   2.0000     -10.825540      -294.5779 
  22   2.0000     -10.825428      -294.5749 
  23   2.0000     -10.824864      -294.5595 
  24   2.0000      -1.093011       -29.7423 
  25   2.0000      -1.070003       -29.1163 
  26   2.0000      -1.037611       -28.2348 
  27   2.0000      -1.018836       -27.7240 
  28   2.0000      -0.998160       -27.1613 
  29   2.0000      -0.973167       -26.4812 
  30   2.0000      -0.942740       -25.6533 
  31   2.0000      -0.933821       -25.4106 
  32   2.0000      -0.920169       -25.0391 
  33   2.0000      -0.903377       -24.5821 
  34   2.0000      -0.886581       -24.1251 
  35   2.0000      -0.867734       -23.6122 
  36   2.0000      -0.791210       -21.5299 
  37   2.0000      -0.781755       -21.2726 
  38   2.0000      -0.775822       -21.1112 
  39   2.0000      -0.755620       -20.5615 
  40   2.0000      -0.751480       -20.4488 
  41   2.0000      -0.736214       -20.0334 
  42   2.0000      -0.695194       -18.9172 
  43   2.0000      -0.656361       -17.8605 
  44   2.0000      -0.649513       -17.6741 
  45   2.0000      -0.639040       -17.3892 
  46   2.0000      -0.634683       -17.2706 
  47   2.0000      -0.614968       -16.7341 
  48   2.0000      -0.607074       -16.5193 
  49   2.0000      -0.590661       -16.0727 
  50   2.0000      -0.575310       -15.6550 
  51   2.0000      -0.560106       -15.2413 
  52   2.0000      -0.545738       -14.8503 
  53   2.0000      -0.542019       -14.7491 
  54   2.0000      -0.533481       -14.5167 
  55   2.0000      -0.530137       -14.4258 
  56   2.0000      -0.520320       -14.1586 
  57   2.0000      -0.517962       -14.0945 
  58   2.0000      -0.512261       -13.9393 
  59   2.0000      -0.501354       -13.6425 
  60   2.0000      -0.498917       -13.5762 
  61   2.0000      -0.489528       -13.3207 
  62   2.0000      -0.482768       -13.1368 
  63   2.0000      -0.476886       -12.9767 
  64   2.0000      -0.468152       -12.7391 
  65   2.0000      -0.448702       -12.2098 
  66   2.0000      -0.440744       -11.9933 
  67   2.0000      -0.430559       -11.7161 
  68   2.0000      -0.430197       -11.7062 
  69   2.0000      -0.421305       -11.4643 
  70   2.0000      -0.404326       -11.0023 
  71   2.0000      -0.399274       -10.8648 
  72   2.0000      -0.374207       -10.1827 
  73   2.0000      -0.338052        -9.1989 
  74   2.0000      -0.325859        -8.8671 
  75   2.0000      -0.316177        -8.6036 
  76   2.0000      -0.288979        -7.8635 
  77   2.0000      -0.265332        -7.2201 
  78   2.0000      -0.233749        -6.3606 
  79   0.0000      -0.005249        -0.1428 
  80   0.0000       0.018160         0.4942 
  81   0.0000       0.036915         1.0045 
  82   0.0000       0.062479         1.7001 
  83   0.0000       0.071365         1.9419 
  84   0.0000       0.074420         2.0251 
  85   0.0000       0.078335         2.1316 
  86   0.0000       0.079492         2.1631 
  87   0.0000       0.083262         2.2657 
  88   0.0000       0.089921         2.4469 
  89   0.0000       0.092946         2.5292 
*Only the first 10 virtual orbitals were printed.
-------
TIMINGS
-------

Total SCF time: 0 days 0 hours 2 min 18 sec 

Total time                  ....     138.289 sec
Sum of individual times     ....     138.027 sec  ( 99.8%)

SCF preparation             ....      15.216 sec  ( 11.0%)
Fock matrix formation       ....     100.632 sec  ( 72.8%)
  Startup                   ....       1.662 sec  (  1.7% of F)
  Split-RI-J                ....       6.791 sec  (  6.7% of F)
  Chain of spheres X        ....      75.421 sec  ( 74.9% of F)
  XC integration            ....      13.231 sec  ( 13.1% of F)
    XC Preparation          ....       0.000 sec  (  0.0% of XC)
    Basis function eval.    ....       0.933 sec  (  7.1% of XC)
    Density eval.           ....       1.977 sec  ( 14.9% of XC)
    XC-Functional eval.     ....       0.028 sec  (  0.2% of XC)
    XC-Potential eval.      ....       2.155 sec  ( 16.3% of XC)
Diagonalization             ....       0.000 sec  (  0.0%)
Density matrix formation    ....       3.197 sec  (  2.3%)
Total Energy calculation    ....       1.659 sec  (  1.2%)
Population analysis         ....       0.000 sec  (  0.0%)
Orbital Transformation      ....       2.365 sec  (  1.7%)
Orbital Orthonormalization  ....       0.000 sec  (  0.0%)
DIIS solution               ....      10.306 sec  (  7.5%)
SOSCF solution              ....       4.554 sec  (  3.3%)
Finished LeanSCF after 139.2 sec

Maximum memory used throughout the entire LEANSCF-calculation: 337.9 MB


           ************************************************************
           *        Program running with 104 parallel MPI-processes   *
           *              working on a common directory               *
           ************************************************************

------------------------------------------------------------------------------
                                ORCA  MP2 
------------------------------------------------------------------------------


-------------
RI-MP2 ENERGY
-------------
Dimension of the orbital basis            ... 1788
Dimension of the AuxC basis               ... 4168
Memory devoted to MP2                     ... 4096 MB   
Data format for matrix containers         ... DOUBLE
Compression type for matrix containers    ... UNCOMPRESSED
Scaling for aa/bb pairs                   ...   5.710e-02
Scaling for ab pairs                      ...   5.979e-01
Overall scaling of the MP2 energy         ...   1.000e+00

-----------------------
SHARK RI TRANSFORMATION
-----------------------

Number of basis functions                ...   1788
Number of aux functions                  ...   4168
Number of operators                      ...      1
Generation of IJK                        ... NO
Generation of IAK                        ... YES
Generation of ABK                        ... NO
Orbital Range Operator  0:    0-  78 to   79-1787

Aux basis identifier                     ...   AUXC
Contraction scheme used                  ... SEGMENTED
Do orthogonalization                     ... YES
All operator combinations                ... NO
Transpose (ia|K)                         ... NO
Integral generator used                  ... LIBINT
Starting integral generation + trafo... 
Half trafo (segmented) done. Total time =  5.4 sec. integrals=  1.3 sec trafo=  3.1 sec
Integral generation and half transformation done (  5.4 sec)

Reading or making V^(-1/2)          ... done (  0.3 sec)
Sorting IAK integrals               ... done (  5.0 sec)

SHARK RI integral transformation done. Total time = 10.9 sec.

Opening buffers                              ... done

Starting loop over batches of integrals:

Operator 0  - window                       ... (  0- 78)x( 79-1787)
Operator 0  - Memory available             ...  4096 MB
Operator 0  - Memory needed per MO         ...  54.3 MB
Operator 0  - Number of orbitals per batch ... 1
Operator 0  - Number of batches            ... 1

OPERATOR  0   PASS   0:  MOs     0 ...    0 +    1 ...    1 +    2 ...    2 +    3 ...    3
                            +    4 ...    4 +    5 ...    5 +    6 ...    6 +    7 ...    7
                            +    8 ...    8 +    9 ...    9 +   10 ...   10 +   11 ...   11
                            +   12 ...   12 +   13 ...   13 +   14 ...   14 +   15 ...   15
                            +   16 ...   16 +   17 ...   17 +   18 ...   18 +   19 ...   19
                            +   20 ...   20 +   21 ...   21 +   22 ...   22 +   23 ...   23
                            +   24 ...   24 +   25 ...   25 +   26 ...   26 +   27 ...   27
                            +   28 ...   28 +   29 ...   29 +   30 ...   30 +   31 ...   31
                            +   32 ...   32 +   33 ...   33 +   34 ...   34 +   35 ...   35
                            +   36 ...   36 +   37 ...   37 +   38 ...   38 +   39 ...   39
                            +   40 ...   40 +   41 ...   41 +   42 ...   42 +   43 ...   43
                            +   44 ...   44 +   45 ...   45 +   46 ...   46 +   47 ...   47
                            +   48 ...   48 +   49 ...   49 +   50 ...   50 +   51 ...   51
                            +   52 ...   52 +   53 ...   53 +   54 ...   54 +   55 ...   55
                            +   56 ...   56 +   57 ...   57 +   58 ...   58 +   59 ...   59
                            +   60 ...   60 +   61 ...   61 +   62 ...   62 +   63 ...   63
                            +   64 ...   64 +   65 ...   65 +   66 ...   66 +   67 ...   67
                            +   68 ...   68 +   69 ...   69 +   70 ...   70 +   71 ...   71
                            +   72 ...   72 +   73 ...   73 +   74 ...   74 +   75 ...   75
                            +   76 ...   76 +   77 ...   77 +   78 ...   78
  Reading integrals       ... ok
Time spent in pair loops =    39.041 sec

-----------------------------------------------
 RI-MP2 CORRELATION ENERGY:     -2.366838628 Eh
-----------------------------------------------


-------
TIMINGS
-------

Total time                :   52.819 sec
Integral trafo            :   11.151 sec ( 21.1%)
I/O of integrals          :    0.089 sec (  0.2%)
K(i,j) operators          :    0.421 sec (  0.8%)
T(i,j) pair energies      :    0.085 sec (  0.2%)
V**(-1/2)                 :    2.623 sec (  5.0%)


---------------------------------------
MP2 TOTAL ENERGY:     -921.933893187 Eh
---------------------------------------

Maximum memory used throughout the entire MP2-calculation: 398.7 MB


-------------------------------------------------------------------------------
                          DFT DISPERSION CORRECTION                            
                                                                               
                                DFTD4 V3.4.0                                   
-------------------------------------------------------------------------------
The REV-DSD-PBEP86-2021 functional is recognized
A user input s6-coefficient scaling factor has been recognized
A user input a1-coefficient scaling factor has been recognized
A user input s8-coefficient scaling factor has been recognized
A user input a2-coefficient scaling factor has been recognized
A user input s9-coefficient scaling factor has been recognized
Active option DFTDOPT                   ...         5   

-------------------------   ----------------
Dispersion correction           -0.037827099
-------------------------   ----------------


-------------------------   --------------------
FINAL SINGLE POINT ENERGY      -921.971720285429
-------------------------   --------------------



           ************************************************************
           *        Program running with 104 parallel MPI-processes   *
           *              working on a common directory               *
           ************************************************************

------------------------------------------------------------------------------
                              ORCA PROPERTY CALCULATIONS
------------------------------------------------------------------------------

GBWName                                 ... compas3D_hc_c24h14_0pent_7_qz_ri.gbw
Number of atoms                         ...     38
Number of basis functions               ...   1788
Max core memory                         ...   1024 MB

Electric properties:
Dipole moment                           ... YES
Quadrupole moment                       ...  NO
Static polarizability (Dipole/Dipole)   ...  NO
Static polarizability (Dipole/Quad.)    ...  NO
Static polarizability (Quad./Quad.)     ...  NO
Static polarizability (Velocity)        ...  NO

Atomic electric properties:
Dipole moment                           ...  NO
Quadrupole moment                       ...  NO
Static polarizability                   ...  NO

Choice of electric origin               ... Center of mass
Position of electric origin             ...    -0.012832     0.111357    -0.000126

General magnetic properties:
Magnetizability                         ...  NO

EPR properties:
g-Tensor (aka g-matrix)                 ...  NO
Zero-Field splitting spin-orbit         ...  NO
Zero-field splitting spin-spin          ...  NO
Hyperfine couplings                     ...  NO (   0 nuclei)
Quadrupole couplings                    ...  NO (   0 nuclei)
Contact density                         ...  NO (   0 nuclei)

NMR properties:
Chemical shifts                         ...  NO (   0 nuclei)
Spin-rotation constants                 ...  NO (   0 nuclei)
Spin-spin couplings                     ...  NO (   0 nuclei,    0 pairs)

Choice of magnetic origin               ... GIAO
Position of magnetic origin             ...     0.000000     0.000000     0.000000

Properties with geometric perturbations:
SCF Hessian                             ...  NO
IR spectrum                             ...  NO
VCD spectrum                            ...  NO
X-ray spectroscopy properties:
SCF XES/XAS/RIXS spectra                ...  NO


-------------
DIPOLE MOMENT
-------------

Method             : SCF
Type of density    : Electron Density
Multiplicity       :   1
Irrep              :   0
Energy             :  -919.5670545586226581 Eh
Relativity type    : 
Basis              : AO
                                X                 Y                 Z
Electronic contribution:     -0.272573207       2.286181226      -0.003391049
Nuclear contribution   :      0.266312379      -2.292239452       0.003620633
                        -----------------------------------------
Total Dipole Moment    :     -0.006260829      -0.006058226       0.000229584
                        -----------------------------------------
Magnitude (a.u.)       :      0.008715089
Magnitude (Debye)      :      0.022151997



--------------------
Rotational spectrum 
--------------------
 
Rotational constants in cm-1:             0.023298             0.004839             0.004007 
Rotational constants in MHz :           698.462410           145.063956           120.116891 

Dipole components along the rotational axes: 
x,y,z [a.u.] :    -0.003813    -0.007832     0.000279 
x,y,z [Debye]:    -0.009692    -0.019907     0.000710 

 

Dipole moment calculation done in   0.3 sec 

Maximum memory used throughout the entire PROP-calculation: 216.5 MB

--------------------------------
SUGGESTED CITATIONS FOR THIS RUN
--------------------------------

Below you find a list of papers that are relevant to this ORCA run
We neither can nor want to force you to cite these papers, but we appreciate if you do
You receive ORCA, which is the product of decades of hard work by many enthusiastic individuals, for free
The only thing we kindly ask in return is that you cite our papers,
We deeply appreciate it, if you show your appreciation for ORCA by not just citing the generic ORCA reference.

Please note that relegating all ORCA citations to the supporting information does *not* help us.
SI sections are not indexed - citations you put there will not count into any citation statistics
But we need these citations in order to attract the funding resources that allow us to do what we are doing

Therefore, if you are a happy ORCA user, please consider citing a few of the papers listed below in the main body of your paper

In addition to the list printed below, the program has created the file compas3D_hc_c24h14_0pent_7_qz_ri.bibtex that contains the list in bibtex format
You can import this file easily into all common literature databanks and citation aid programs


List of essential papers. We consider these as the minimum necessary citations

  1. Neese,F.
     Software update: the ORCA program system, version 5.0
     WIRES Comput. Molec. Sci., 2022 12(1)e1606
     doi.org/10.1002/wcms.1606

List of papers to cite with high priority. The work reported in these papers was absolutely
necessary for this run to complete.
Our perspective: the developers of density functionals and basis sets usually get cited in chemistry papers
Good! But without the algorithms to do something with them, the functionals or basis sets would not do anything.
Hence, in our opinion, the algorithm design and method developments papers are equally worthy of getting cited

  1. Neese,F.
     An improvement of the resolution of the identity approximation for the formation of the Coulomb matrix
     J. Comp. Chem., 2003 24(14)1740-1747
     doi.org/10.1002/jcc.10318
  2. Neese,F.; Wennmohs,F.; Hansen,A.; Becker,U.
     Efficient, approximate and parallel Hartree-Fock and hybrid DFT calculations. A 'chain-of-spheres' algorithm for the Hartree-Fock exchange
     Chem. Phys., 2009 356(1-3)98-109
     doi.org/10.1016/j.chemphys.2008.10.036
  3. Kossmann,S.; Neese,F.
     Efficient Structure Optimization with Second-Order Many-Body Perturbation Theory: The RIJCOSX-MP2 Method
     J. Theo. Comp. Chem., 2010 6 2325-2338
     doi.org/10.1021/ct100199k
  4. Helmich-Paris,B.; de Souza,B.; Neese,F.; Izsák,R.
     An improved chain of spheres for exchange algorithm
     J. Chem. Phys., 2021 155 104109
     doi.org/doi: 10.1063/5.0058766.
  5. Neese,F.
     The SHARK Integral Generation and Digestion System
     J. Comp. Chem., 2022  1-16
     doi.org/10.1002/jcc.26942
  6. Caldeweyher,E.; Bannwarth,C.; Grimme,S.
     Extension of the D3 dispersion coefficient model
     J. Chem. Phys., 2017 147 034112
     doi.org/10.1063/1.4993215
  7. Caldeweyher,E.; Ehlert,S.; Hansen,A.; Neugebauer,H.; Spicher,S.; Bannwarth,C.; Grimme,S.
     A generally applicable atomic-charge dependent London dispersion correction
     J. Chem. Phys., 2019 150 154122
     doi.org/10.1063/1.5090222
  8. Caldeweyher,E.; Mewes,J.; Ehlert,S.; Grimme,S.
     Extension and evaluation of the D4 London-dispersion model for periodic systems
     Phys. Chem. Chem. Phys., 2020 22(16)8499-8512
     doi.org/10.1039/D0CP00502A
  9. Wittmann,L.; Gordiy,I.; Friede,M.; Helmich-Paris,B.; Grimme,S.; Hansen,A.; Bursch,M.
     Extension of the D3 and D4 London Dispersion Corrections to the full Actinides Series
     Phys. Chem. Chem. Phys., 2024 26(32)21379-21394
     doi.org/https://doi.org/10.1039/D4CP01514B 

List of suggested additional citations. These are papers that are important in the 'surrounding' of 
of this run, or papers that preceded the highly important papers. If you like your results we are grateful for a citation.

  1. Izsak,R.; Neese,F.
     An overlap fitted chain of spheres exchange method
     J. Chem. Phys., 2011 135 144105
     doi.org/10.1063/1.3646921
  2. Izsak,R.; Hansen,A.; Neese,F.
     The resolution of identity and chain of spheres approximations for the LPNO-CCSD singles Fock term
     Molec. Phys., 2012 110 2413-2417
     doi.org/10.1080/00268976.2012.687466
  3. Neese,F.
     The ORCA program system
     WIRES Comput. Molec. Sci., 2012 2(1)73-78
     doi.org/10.1002/wcms.81
  4. Izsak,R.; Neese,F.; Klopper,W.
     Robust fitting techniques in the chain of spheres approximation to the Fock exchange: The role of the complementary space
     J. Chem. Phys., 2013 139 
     doi.org/10.1063/1.4819264
  5. Neese,F.
     Software update: the ORCA program system, version 4.0
     WIRES Comput. Molec. Sci., 2018 8(1)1-6
     doi.org/10.1002/wcms.1327
  6. Neese,F.; Wennmohs,F.; Becker,U.; Riplinger,C.
     The ORCA quantum chemistry program package
     J. Chem. Phys., 2020 152 Art. No. L224108
     doi.org/10.1063/5.0004608

List of optional additional citations

  1. Neese,F.
     Approximate second-order SCF convergence for spin unrestricted wavefunctions
     Chem. Phys. Lett., 2000 325(1-3)93-98
     doi.org/10.1016/s0009-2614(00)00662-x

Timings for individual modules:

Sum of individual times          ...      274.874 sec (=   4.581 min)
Startup calculation              ...       29.588 sec (=   0.493 min)  10.8 %
SCF iterations                   ...      159.128 sec (=   2.652 min)  57.9 %
Property calculations            ...       16.535 sec (=   0.276 min)   6.0 %
MP2 module                       ...       69.622 sec (=   1.160 min)  25.3 %
                             ****ORCA TERMINATED NORMALLY****
TOTAL RUN TIME: 0 days 0 hours 5 minutes 1 seconds 31 msec
