
                                 *****************
                                 * O   R   C   A *
                                 *****************

                                            #,                                       
                                            ###                                      
                                            ####                                     
                                            #####                                    
                                            ######                                   
                                           ########,                                 
                                     ,,################,,,,,                         
                               ,,#################################,,                 
                          ,,##########################################,,             
                       ,#########################################, ''#####,          
                    ,#############################################,,   '####,        
                  ,##################################################,,,,####,       
                ,###########''''           ''''###############################       
              ,#####''   ,,,,##########,,,,          '''####'''          '####       
            ,##' ,,,,###########################,,,                        '##       
           ' ,,###''''                  '''############,,,                           
         ,,##''                                '''############,,,,        ,,,,,,###''
      ,#''                                            '''#######################'''  
     '                                                          ''''####''''         
             ,#######,   #######,   ,#######,      ##                                
            ,#'     '#,  ##    ##  ,#'     '#,    #''#        ,####,   ,####,        
            ##       ##  ##   ,#'  ##            #'  '#       #'       #'  '#        
            ##       ##  #######   ##           ,######,      #####,   #    #        
            '#,     ,#'  ##    ##  '#,     ,#' ,#      #,     #,   #   #,  ,#        
             '#######'   ##     ##  '#######'  #'      '#     '####' # '####'        



                #########################################################
                #                        -***-                          #
                #          Department of theory and spectroscopy        #
                #                                                       #
                #                      Frank Neese                      #
                #                                                       #
                #     Directorship, Architecture, Infrastructure        #
                #                    SHARK, DRIVERS                     #
                #        Core code/Algorithms in most modules           #
                #                                                       #
                #        Max Planck Institute fuer Kohlenforschung      #
                #                Kaiser Wilhelm Platz 1                 #
                #                 D-45470 Muelheim/Ruhr                 #
                #                      Germany                          #
                #                                                       #
                #                  All rights reserved                  #
                #                        -***-                          #
                #########################################################


                         Program Version 6.0.1  -  RELEASE   -


 With contributions from (in alphabetic order):
[Max-Planck-Institut fuer Kohlenforschung]                               
  Daniel Aravena         : Magnetic Suceptibility                        
  Michael Atanasov       : Ab Initio Ligand Field Theory (pilot matlab implementation)
  Alexander A. Auer      : GIAO ZORA, VPT2 properties, NMR spectrum      
  Ute Becker             : All parallelization in ORCA, NUMFREQ, NUMCALC 
  Giovanni Bistoni       : ED, misc. LED, open-shell LED, HFLD           
  Martin Brehm           : Molecular dynamics                            
  Dmytro Bykov           : pre 5.0 version of the SCF Hessian            
  Marcos Casanova-Páez   : Triplet and SCS-CIS(D). UHF-(DLPNO)-IP/EA/STEOM-CCSD. UHF-CVS-IP/STEOM-CCSD   
  Vijay G. Chilkuri      : MRCI spin determinant printing, contributions to CSF-ICE 
  Pauline Colinet        : FMM embedding                                 
  Dipayan Datta          : RHF DLPNO-CCSD density                        
  Achintya Kumar Dutta   : EOM-CC, STEOM-CC                              
  Nicolas Foglia         : Exact transition moments, OPA infrastructure, MCD improvements    
  Dmitry Ganyushin       : Spin-Orbit,Spin-Spin,Magnetic field MRCI      
  Miquel Garcia-Rates    : C-PCM and meta-GGA Hessian, CCSD/C-PCM, Gaussian charge scheme 
  Tiago L. C. Gouveia    : GS-ROHF, GS-ROCIS                             
  Yang Guo               : DLPNO-NEVPT2, F12-NEVPT2, CIM, IAO-localization        
  Andreas Hansen         : Spin unrestricted coupled pair/coupled cluster methods 
  Ingolf Harden          : AUTO-CI MPn and infrastructure                
  Benjamin Helmich-Paris : MC-RPA, TRAH-(SCF,CASSCF), AVAS, COSX integrals, SCF dyn. polar. 
  Lee Huntington         : MR-EOM, pCC                                   
  Robert Izsak           : Overlap fitted RIJCOSX, COSX-SCS-MP3, EOM     
  Riya Kayal             : Wick's Theorem for AUTO-CI, AUTO-CI UHF-CCSDT 
  Emily Kempfer          : AUTO-CI, RHF CISDT and CCSDT                  
  Christian Kollmar      : KDIIS, OOCD, Brueckner-CCSD(T), CCSD density, CASPT2, CASPT2-K, improved NEVPT2 
  Axel Koslowski         : Symmetry handling                             
  Simone Kossmann        : meta-GGA functionals, TD-DFT gradient, OOMP2, (MP2 Hessian; deprecated post 5.0) 
  Lucas Lang             : DCDCAS                                        
  Marvin Lechner         : AUTO-CI (C++ implementation), FIC-MRCC        
  Spencer Leger          : CASSCF response                               
  Dagmar Lenk            : GEPOL surface, SMD, ORCA-2-JSON               
  Dimitrios Liakos       : Extrapolation schemes; Compound Job, initial MDCI parallelization 
  Dimitrios Manganas     : Further ROCIS development; embedding schemes. LFT, Crystal Embedding 
  Dimitrios Pantazis     : SARC Basis sets                               
  Anastasios Papadopoulos: AUTO-CI, single reference methods and gradients 
  Taras Petrenko         : pre 6.0 DFT Hessian and TD-DFT gradient, (ASA, deprecated), ECA, 1-Electron XAS/XES, NRVS 
  Peter Pinski           : DLPNO-MP2, DLPNO-MP2 Gradient                 
  Christoph Reimann      : Effective Core Potentials                     
  Marius Retegan         : Local ZFS, SOC                                
  Christoph Riplinger    : Optimizer, TS searches, QM/MM, DLPNO-CCSD(T), (RO)-DLPNO pert. Triples 
  Michael Roemelt        : Original ROCIS implementation                 
  Masaaki Saitow         : Open-shell DLPNO-CCSD energy and density      
  Barbara Sandhoefer     : DKH picture change effects                    
  Kantharuban Sivalingam : CASSCF convergence/infrastructure, NEVPT2 and variants, FIC-MRCI 
  Bernardo de Souza      : ESD, SOC TD-DFT                               
  Georgi L. Stoychev     : AutoAux, RI-MP2 NMR, DLPNO-MP2 response, X2C  
  Van Anh Tran           : RI-MP2 g-tensors                              
  Willem Van den Heuvel  : Paramagnetic NMR                              
  Zikuan Wang            : NOTCH, Electric field optimization            
  Frank Wennmohs         : Technical directorship and infrastructure     
  Hang Xu                : AUTO-CI-Response properties                   
                                                                         
[FACCTs GmbH]                                                            
  Markus Bursch, Miquel Garcia-Rates, Christoph Riplinger, Bernardo de Souza, Georgi L. Stoychev 
                                                                 
  APM, Basis sets (HGBS, AHGBS, def-TZVP (Ac-Lr), def2-XVPD (La-Lu)), CI-OPT, improved COSX, DLPNO-Multilevel,           
  DOCKER, DRACO, updates on ESD, GOAT, IRC, LR-CPCM, MBIS, meta-GGA TD-DFT gradient, ML-optimized integration grids, 
  MM, NACMEs, nearIR, NEB, NEB-TS, NL-DFT gradient (VV10), 2- and 3-layer-ONIOM, interface openCOSMO-RS, QMMM,   
  Crystal-QMMM, SF, symmetry and pop. for TD-DFT, r2SCAN hybrids, SOLVATOR                                   
                                                                         
[Other institutions]                                                     
  V. Asgeirsson          : NEB                                           
  Christoph Bannwarth    : sTDA-DFT, sTD-DFT, PBEh-3c, B97-3c, D3        
  Sebastian Ehlert       : rSCAN, r2SCAN, r2SCAN-3c, D4, dhf basis sets  
  Marvin Friede          : D4 for Fr, Ra, Ac-Lr                          
  Lars Goerigk           : TD-DFT with DH, B97 family of functionals     
  Stefan Grimme          : VdW corrections, initial TS optimization, DFT functionals, gCP, sTDA/sTD-DF 
  Waldemar Hujo          : DFT-NL                                        
  H. Jonsson             : NEB                                           
  Holger Kruse           : gCP                                           
  Marcel Mueller         : wB97X-3c, vDZP basis set                      
  Hagen Neugebauer       : wr2SCAN                                       
  Tobias Risthaus        : range-separated hybrid DFT                    
  Lukas Wittmann         : regularized MP2, r2SCAN double-hybrids, wr2SCAN        
                                                                         
We gratefully acknowledge several colleagues who have allowed us to      
interface, adapt or use parts of their codes:                            
  Ed Valeev, F. Pavosevic, A. Kumar             : LibInt (2-el integral package), F12 methods 
  Garnet Chan, S. Sharma, J. Yang, R. Olivares  : DMRG                   
  Ulf Ekstrom                                   : XCFun DFT Library      
  Mihaly Kallay                                 : mrcc  (arbitrary order and MRCC methods)
  Frank Weinhold                                : gennbo (NPA and NBO analysis)           
  Simon Mueller                                 : openCOSMO-RS                            
  Christopher J. Cramer and Donald G. Truhlar   : smd solvation model                     
  S Lehtola, MJT Oliveira, MAL Marques          : LibXC Library                           
  Liviu Ungur et al                             : ANISO software                          


 Your calculation uses the libint2 library for the computation of 2-el integrals
 For citations please refer to: http://libint.valeyev.net

 Your ORCA version has been built with support for libXC version: 6.2.2
 For citations please refer to: https://libxc.gitlab.io

 This ORCA versions uses:
   CBLAS   interface :  Fast vector & matrix operations
   LAPACKE interface :  Fast linear algebra routines
   SCALAPACK package :  Parallel linear algebra routines
   Shared memory     :  Shared parallel matrices
   BLAS/LAPACK       :  OpenBLAS 0.3.27  USE64BITINT DYNAMIC_ARCH NO_AFFINITY SapphireRapids SINGLE_THREADED
        Core in use  :  SapphireRapids
   Copyright (c) 2011-2014, The OpenBLAS Project




***************************************
The coordinates will be read from file: /scratch/kx58/rs2200/dhdft/inputs/compas3D-xyzs/hc_c24h14_0pent_9.xyz
***************************************


Your calculation utilizes the atom-pairwise dispersion correction
based on EEQ partial charges (D4)


================================================================================

----- Orbital basis set information -----
Your calculation utilizes the basis: def2-QZVPP
   F. Weigend and R. Ahlrichs, Phys. Chem. Chem. Phys. 7, 3297 (2005).

================================================================================
                                        WARNINGS
                       Please study these warnings very carefully!
================================================================================


WARNING: No MP2 level density has been requested!
         To calculate MP2 level properties use
         %mp2 Density relaxed end
         or
         %mp2 Density unrelaxed end
         Otherwise for double-hybrid DFT only the energy is correct!

================================================================================
                                       INPUT FILE
================================================================================
NAME = compas3D_hc_c24h14_0pent_9_qz_nori.inp
|  1> ! RKS revDSD-PBEP86-D4/2021 defgrid3  NORI NOPOP NoFrozencore NoUseSym
|  2> 
|  3> %basis
|  4> Basis "def2-QZVPP"
|  5> 
|  6> 
|  7> end
|  8> 
|  9> %method
| 10> ScalHFX 0.69
| 11> ScalDFX 0.31
| 12> ScalDFC 0.4038
| 13> ScalLDAC 0.4038
| 14> 
| 15> D4S6 0.4612
| 16> D4S8 0.0
| 17> D4A1 0.44
| 18> D4A2 3.60
| 19> end
| 20> 
| 21> %mp2
| 22> PS 0.5979
| 23> PT 0.0571
| 24> end
| 25> 
| 26> %pal
| 27> nprocs 104
| 28> end
| 29> 
| 30> *XYZFILE 0 1 /scratch/kx58/rs2200/dhdft/inputs/compas3D-xyzs/hc_c24h14_0pent_9.xyz
| 31> 
| 32>                          ****END OF INPUT****
================================================================================

                       ****************************
                       * Single Point Calculation *
                       ****************************

---------------------------------
CARTESIAN COORDINATES (ANGSTROEM)
---------------------------------
  C      1.780922   -0.612295    0.000162
  C      0.370178   -0.616042    0.000102
  C     -0.370125    0.616149    0.000145
  C      0.342030    1.860611    0.000310
  C      1.778947    1.828093    0.000512
  C      2.458741    0.658657    0.000440
  C      2.496684   -1.853383   -0.000033
  C      1.765885   -3.080011   -0.000122
  C      0.358587   -3.051861   -0.000096
  C     -0.341977   -1.860504   -0.000018
  C     -1.778893   -1.827987   -0.000013
  C     -2.458688   -0.658551    0.000000
  C     -1.780869    0.612401    0.000013
  C     -2.496631    1.853489   -0.000088
  C     -1.765832    3.080117    0.000102
  C     -0.358534    3.051967    0.000313
  C      3.918099   -1.929860   -0.000166
  C      4.569804   -3.135055   -0.000294
  C      3.839296   -4.348555   -0.000311
  C      2.472561   -4.316731   -0.000246
  C     -3.918046    1.929964   -0.000394
  C     -4.569753    3.135159   -0.000431
  C     -3.839245    4.348659   -0.000177
  C     -2.472510    4.316836    0.000064
  H      2.316685    2.778663    0.000760
  H      3.547050    0.684246    0.000673
  H     -0.189873   -3.996841   -0.000144
  H     -2.316632   -2.778557    0.000012
  H     -3.546997   -0.684140    0.000071
  H      0.189925    3.996948    0.000480
  H      4.509904   -1.015873   -0.000225
  H      5.661330   -3.161207   -0.000404
  H      4.370217   -5.302545   -0.000396
  H      1.894779   -5.243798   -0.000295
  H     -4.509850    1.015976   -0.000661
  H     -5.661278    3.161310   -0.000678
  H     -4.370167    5.302649   -0.000195
  H     -1.894728    5.243904    0.000227

----------------------------
CARTESIAN COORDINATES (A.U.)
----------------------------
  NO LB      ZA    FRAG     MASS         X           Y           Z
   0 C     6.0000    0    12.011    3.365455   -1.157069    0.000306
   1 C     6.0000    0    12.011    0.699536   -1.164152    0.000193
   2 C     6.0000    0    12.011   -0.699434    1.164353    0.000274
   3 C     6.0000    0    12.011    0.646343    3.516045    0.000586
   4 C     6.0000    0    12.011    3.361722    3.454595    0.000967
   5 C     6.0000    0    12.011    4.646348    1.244682    0.000832
   6 C     6.0000    0    12.011    4.718049   -3.502386   -0.000062
   7 C     6.0000    0    12.011    3.337039   -5.820377   -0.000230
   8 C     6.0000    0    12.011    0.677630   -5.767181   -0.000181
   9 C     6.0000    0    12.011   -0.646242   -3.515843   -0.000034
  10 C     6.0000    0    12.011   -3.361621   -3.454394   -0.000024
  11 C     6.0000    0    12.011   -4.646246   -1.244481    0.000001
  12 C     6.0000    0    12.011   -3.365354    1.157269    0.000024
  13 C     6.0000    0    12.011   -4.717948    3.502586   -0.000167
  14 C     6.0000    0    12.011   -3.336940    5.820578    0.000192
  15 C     6.0000    0    12.011   -0.677531    5.767383    0.000592
  16 C     6.0000    0    12.011    7.404135   -3.646907   -0.000313
  17 C     6.0000    0    12.011    8.635679   -5.924395   -0.000555
  18 C     6.0000    0    12.011    7.255219   -8.217578   -0.000588
  19 C     6.0000    0    12.011    4.672463   -8.157440   -0.000465
  20 C     6.0000    0    12.011   -7.404034    3.647103   -0.000745
  21 C     6.0000    0    12.011   -8.635581    5.924591   -0.000814
  22 C     6.0000    0    12.011   -7.255122    8.217774   -0.000334
  23 C     6.0000    0    12.011   -4.672367    8.157638    0.000121
  24 H     1.0000    0     1.008    4.377901    5.250912    0.001436
  25 H     1.0000    0     1.008    6.702954    1.293038    0.001271
  26 H     1.0000    0     1.008   -0.358808   -7.552935   -0.000272
  27 H     1.0000    0     1.008   -4.377800   -5.250712    0.000022
  28 H     1.0000    0     1.008   -6.702852   -1.292837    0.000134
  29 H     1.0000    0     1.008    0.358906    7.553137    0.000907
  30 H     1.0000    0     1.008    8.522484   -1.919721   -0.000425
  31 H     1.0000    0     1.008   10.698364   -5.973816   -0.000763
  32 H     1.0000    0     1.008    8.258514  -10.020359   -0.000748
  33 H     1.0000    0     1.008    3.580613   -9.909342   -0.000557
  34 H     1.0000    0     1.008   -8.522381    1.919917   -0.001250
  35 H     1.0000    0     1.008  -10.698266    5.974010   -0.001281
  36 H     1.0000    0     1.008   -8.258419   10.020554   -0.000368
  37 H     1.0000    0     1.008   -3.580518    9.909542    0.000429

--------------------------------
INTERNAL COORDINATES (ANGSTROEM)
--------------------------------
 C      0   0   0     0.000000000000     0.00000000     0.00000000
 C      1   0   0     1.410748930833     0.00000000     0.00000000
 C      2   1   0     1.437478190210   120.84531808     0.00000000
 C      3   2   1     1.433823495330   119.22174305     0.00000000
 C      4   3   2     1.437284459084   118.48432087     0.00000000
 C      5   4   3     1.352664231942   121.46592605     0.00000000
 C      1   2   3     1.432694828871   119.82074692   180.00692665
 C      7   1   2     1.427824880322   119.24145935     0.00000000
 C      8   7   1     1.407579751922   119.63964925     0.00000000
 C      9   8   7     1.382070981383   121.60309346     0.00000000
 C     10   9   8     1.437284358619   121.75353169   179.99900121
 C     11  10   9     1.352664027438   121.46586880   180.00314819
 C      3   2   1     1.410748996812   120.84529534   179.99657802
 C     13   3   2     1.432694901799   119.82074610   180.00677767
 C     14  13   3     1.427824662516   119.24147130     0.00000000
 C      4   3   2     1.382071054040   119.76208570   179.99809195
 C      7   1   2     1.423471356048   123.05269634   179.99141062
 C     17   7   1     1.370114826811   121.48190097   179.99719450
 C     18  17   7     1.416412493996   120.55055189     0.00000000
 C     19  18  17     1.367105623433   119.71342180     0.00000000
 C     14  13   3     1.423471294203   123.05265103   179.99180739
 C     21  14  13     1.370114982425   121.48188788   179.99744478
 C     22  21  14     1.416412436719   120.55053539     0.00000000
 C     23  22  21     1.367105671403   119.71343756     0.00000000
 H      5   4   3     1.092129507498   118.20049530   180.00731907
 H      6   5   4     1.088609624023   118.82259677   180.00435329
 H      9   8   7     1.092609394348   118.98462329   180.00126149
 H     11  10   9     1.092129463845   118.20050262     0.00000000
 H     12  11  10     1.088609652801   118.82256932   180.00403012
 H     16   4   3     1.092609394698   119.41228085   179.99754459
 H     17   7   1     1.088855170929   119.84322660     0.00000000
 H     18  17   7     1.091839094043   119.77467637   179.99939536
 H     19  18  17     1.091776018362   119.85560967   180.00107943
 H     20  19  18     1.092376130764   120.59882045   179.99778345
 H     21  14  13     1.088855147800   119.84322768     0.00000000
 H     22  21  14     1.091839130099   119.77468042   179.99944890
 H     23  22  21     1.091776060722   119.85560136   180.00086654
 H     24  23  22     1.092376131740   120.59882276   179.99789001

---------------------------
INTERNAL COORDINATES (A.U.)
---------------------------
 C      0   0   0     0.000000000000     0.00000000     0.00000000
 C      1   0   0     2.665929122997     0.00000000     0.00000000
 C      2   1   0     2.716440102982   120.84531808     0.00000000
 C      3   2   1     2.709533730555   119.22174305     0.00000000
 C      4   3   2     2.716074004211   118.48432087     0.00000000
 C      5   4   3     2.556164949521   121.46592605     0.00000000
 C      1   2   3     2.707400860051   119.82074692   180.00692665
 C      7   1   2     2.698197991007   119.24145935     0.00000000
 C      8   7   1     2.659940242786   119.63964925     0.00000000
 C      9   8   7     2.611735652454   121.60309346     0.00000000
 C     10   9   8     2.716073814359   121.75353169   179.99900121
 C     11  10   9     2.556164563064   121.46586880   180.00314819
 C      3   2   1     2.665929247679   120.84529534   179.99657802
 C     13   3   2     2.707400997865   119.82074610   180.00677767
 C     14  13   3     2.698197579414   119.24147130     0.00000000
 C      4   3   2     2.611735789756   119.76208570   179.99809195
 C      7   1   2     2.689971022412   123.05269634   179.99141062
 C     17   7   1     2.589141794698   121.48190097   179.99719450
 C     18  17   7     2.676631706316   120.55055189     0.00000000
 C     19  18  17     2.583455224432   119.71342180     0.00000000
 C     14  13   3     2.689970905542   123.05265103   179.99180739
 C     21  14  13     2.589142088766   121.48188788   179.99744478
 C     22  21  14     2.676631598079   120.55053539     0.00000000
 C     23  22  21     2.583455315082   119.71343756     0.00000000
 H      5   4   3     2.063825671946   118.20049530   180.00731907
 H      6   5   4     2.057174056154   118.82259677   180.00435329
 H      9   8   7     2.064732526668   118.98462329   180.00126149
 H     11  10   9     2.063825589454   118.20050262     0.00000000
 H     12  11  10     2.057174110536   118.82256932   180.00403012
 H     16   4   3     2.064732527328   119.41228085   179.99754459
 H     17   7   1     2.057638072560   119.84322660     0.00000000
 H     18  17   7     2.063276870050   119.77467637   179.99939536
 H     19  18  17     2.063157674287   119.85560967   180.00107943
 H     20  19  18     2.064291722376   120.59882045   179.99778345
 H     21  14  13     2.057638028852   119.84322768     0.00000000
 H     22  21  14     2.063276938186   119.77468042   179.99944890
 H     23  22  21     2.063157754336   119.85560136   180.00086654
 H     24  23  22     2.064291724221   120.59882276   179.99789001

---------------------
BASIS SET INFORMATION
---------------------
There are 2 groups of distinct atoms

 Group   1 Type C   : 15s8p3d2f1g contracted to 7s4p3d2f1g pattern {8211111/5111/111/11/1}
 Group   2 Type H   : 7s3p2d1f contracted to 4s3p2d1f pattern {4111/111/11/1}

Atom   0C    basis set group =>   1
Atom   1C    basis set group =>   1
Atom   2C    basis set group =>   1
Atom   3C    basis set group =>   1
Atom   4C    basis set group =>   1
Atom   5C    basis set group =>   1
Atom   6C    basis set group =>   1
Atom   7C    basis set group =>   1
Atom   8C    basis set group =>   1
Atom   9C    basis set group =>   1
Atom  10C    basis set group =>   1
Atom  11C    basis set group =>   1
Atom  12C    basis set group =>   1
Atom  13C    basis set group =>   1
Atom  14C    basis set group =>   1
Atom  15C    basis set group =>   1
Atom  16C    basis set group =>   1
Atom  17C    basis set group =>   1
Atom  18C    basis set group =>   1
Atom  19C    basis set group =>   1
Atom  20C    basis set group =>   1
Atom  21C    basis set group =>   1
Atom  22C    basis set group =>   1
Atom  23C    basis set group =>   1
Atom  24H    basis set group =>   2
Atom  25H    basis set group =>   2
Atom  26H    basis set group =>   2
Atom  27H    basis set group =>   2
Atom  28H    basis set group =>   2
Atom  29H    basis set group =>   2
Atom  30H    basis set group =>   2
Atom  31H    basis set group =>   2
Atom  32H    basis set group =>   2
Atom  33H    basis set group =>   2
Atom  34H    basis set group =>   2
Atom  35H    basis set group =>   2
Atom  36H    basis set group =>   2
Atom  37H    basis set group =>   2


           ************************************************************
           *        Program running with 104 parallel MPI-processes   *
           *              working on a common directory               *
           ************************************************************
------------------------------------------------------------------------------
                             ORCA STARTUP CALCULATIONS
------------------------------------------------------------------------------
------------------------------------------------------------------------------
                   ___                                                        
                  /   \      - P O W E R E D   B Y -                         
                 /     \                                                     
                 |  |  |   _    _      __       _____    __    __             
                 |  |  |  | |  | |    /  \     |  _  \  |  |  /  |          
                  \  \/   | |  | |   /    \    | | | |  |  | /  /          
                 / \  \   | |__| |  /  /\  \   | |_| |  |  |/  /          
                |  |  |   |  __  | /  /__\  \  |    /   |      \           
                |  |  |   | |  | | |   __   |  |    \   |  |\   \          
                \     /   | |  | | |  |  |  |  | |\  \  |  | \   \       
                 \___/    |_|  |_| |__|  |__|  |_| \__\ |__|  \__/        
                                                                              
                      - O R C A' S   B I G   F R I E N D -                    
                                      &                                       
                       - I N T E G R A L  F E E D E R -                       
                                                                              
 v1 FN, 2020, v2 2021, v3 2022-2024                                           
------------------------------------------------------------------------------


----------------------
SHARK INTEGRAL PACKAGE
----------------------

Number of atoms                             ...     38
Number of basis functions                   ...   1788
Number of shells                            ...    548
Maximum angular momentum                    ...      4
Integral batch strategy                     ... SHARK/LIBINT Hybrid
RI-J (if used) integral strategy            ... SPLIT-RIJ (Revised 2003 algorithm where possible)
Printlevel                                  ...      1
Contraction scheme used                     ... SEGMENTED contraction
Prescreening option                         ... SCHWARTZ
   Thresh                                   ... 1.000e-10
   Tcut                                     ... 1.000e-11
   Tpresel                                  ... 1.000e-11 
Coulomb Range Separation                    ... NOT USED
Exchange Range Separation                   ... NOT USED
Multipole approximations                    ... NOT USED
Finite Nucleus Model                        ... NOT USED
CABS basis                                  ... NOT available
Auxiliary Coulomb fitting basis             ... NOT available
Auxiliary J/K fitting basis                 ... NOT available
Auxiliary Correlation fitting basis         ... NOT available
Auxiliary 'external' fitting basis          ... NOT available

Checking pre-screening integrals            ... done (  0.0 sec) Dimension = 548
Check shell pair data                       ... done (  0.0 sec)
Shell pair information
Shell pair cut-off parameter TPreSel        ...   1.0e-11
Total number of shell pairs                 ...    150426
Shell pairs after pre-screening             ...     87916
Total number of primitive shell pairs       ...    386901
Primitive shell pairs kept                  ...    156430
          la=0 lb=0:  13343 shell pairs
          la=1 lb=0:  19730 shell pairs
          la=1 lb=1:   6879 shell pairs
          la=2 lb=0:  12036 shell pairs
          la=2 lb=1:   8918 shell pairs
          la=2 lb=2:   2877 shell pairs
          la=3 lb=0:   7258 shell pairs
          la=3 lb=1:   5342 shell pairs
          la=3 lb=2:   3274 shell pairs
          la=3 lb=3:   1002 shell pairs
          la=4 lb=0:   2864 shell pairs
          la=4 lb=1:   2122 shell pairs
          la=4 lb=2:   1318 shell pairs
          la=4 lb=3:    780 shell pairs
          la=4 lb=4:    173 shell pairs

Calculating one electron integrals          ... done (  1.2 sec)
Calculating Nuclear repulsion               ... done (  0.0 sec) ENN=   1776.779746913282 Eh

Diagonalization of the overlap matrix:
Smallest eigenvalue                        ... 1.531e-06
Time for diagonalization                   ...    0.641 sec
Threshold for overlap eigenvalues          ... 1.000e-07
Number of eigenvalues below threshold      ... 0
Time for construction of square roots      ...    0.435 sec
Total time needed                          ...    1.131 sec

-------------------
DFT GRID GENERATION
-------------------

General Integration Accuracy     IntAcc      ... 4.959
Radial Grid Type                 RadialGrid  ... OptM3 with GC (2021)
Angular Grid (max. ang.)         AngularGrid ... 6 (Lebedev-590)
Angular grid pruning method      GridPruning ... 4 (adaptive)
Weight generation scheme         WeightScheme... mBecke (2022)
Basis function cutoff            BFCut       ... 1.0000e-10
Integration weight cutoff        WCut        ... 1.0000e-14
Partially contracted basis set               ... off
Rotationally invariant grid construction     ... off
Angular grids for H and He will be reduced by one unit
Diffuse basis detected: some atoms will have their outermost
                        angular grid increased by 1.

Total number of grid points                  ...   468077
Total number of batches                      ...     7332
Average number of points per batch           ...       63
Average number of grid points per atom       ...    12318
Initializing property integral containers    ... done (  0.0 sec)

SHARK setup successfully completed in   8.7 seconds

Maximum memory used throughout the entire STARTUP-calculation: 186.4 MB


           ************************************************************
           *        Program running with 104 parallel MPI-processes   *
           *              working on a common directory               *
           ************************************************************
-------------------------------------------------------------------------------
                                 ORCA GUESS
                   Start orbitals & Density for SCF / CASSCF
-------------------------------------------------------------------------------

------------
SCF SETTINGS
------------
Hamiltonian:
 Density Functional     Method          .... DFT(GTOs)
 Exchange Functional    Exchange        .... PBE
   PBE kappa parameter   XKappa         ....  0.804000
   PBE mue parameter    XMuePBE         ....  0.219520
 Correlation Functional Correlation     .... P86
 LDA part of GGA corr.  LDAOpt          .... VWN-5
 Gradients option       PostSCFGGA      .... off
 Hybrid DFT is turned on
   Fraction HF Exchange ScalHFX         ....  0.690000
   Scaling of DF-GGA-X  ScalDFX         ....  0.310000
   Scaling of DF-GGA-C  ScalDFC         ....  0.403800
   Scaling of DF-LDA-C  ScalLDAC        ....  0.403800
   Perturbative correction              ....  1.000000


General Settings:
 Integral files         IntName         .... compas3D_hc_c24h14_0pent_9_qz_nori
 Hartree-Fock type      HFTyp           .... RHF
 Total Charge           Charge          ....    0
 Multiplicity           Mult            ....    1
 Number of Electrons    NEL             ....  158
 Basis Dimension        Dim             .... 1788
 Nuclear Repulsion      ENuc            ....   1776.7797469133 Eh

Convergence Acceleration:
 AO-DIIS                CNVDIIS         .... on
   Start iteration      DIISMaxIt       ....    12
   Startup error        DIISStart       ....  0.200000
   # of expansion vecs  DIISMaxEq       ....     5
   Bias factor          DIISBfac        ....   1.050
   Max. coefficient     DIISMaxC        ....  10.000
 MO-DIIS                CNVKDIIS        .... off
 Trust-Rad. Augm. Hess. CNVTRAH         .... auto
   Auto Start mean grad. ratio tolernc. ....  1.125000
   Auto Start start iteration           ....    50
   Auto Start num. interpolation iter.  ....    10
   Max. Number of Micro iterations      ....    24
   Max. Number of Macro iterations      .... Maxiter - #DIIS iter
   Number of Davidson start vectors     ....     2
   Converg. threshold    (grad. norm)   ....   5.000e-05
   Grad. Scal. Fac. for Micro threshold ....   0.100
   Minimum threshold for Micro iter.    ....   1.000e-02
   NR start threshold (gradient norm)   ....   1.000e-04
   Initial trust radius                 ....   0.400
   Minimum AH scaling param. (alpha)    ....   1.000
   Maximum AH scaling param. (alpha)    .... 1000.000
   Quad. conv. algorithm                .... NR
   White noise on init. David. guess    .... on
   Maximum white noise                  ....   0.010
   Pseudo random numbers                .... off
   Inactive MOs                         .... canonical
   Orbital update algorithm             .... Taylor
   Preconditioner                       .... Diag
   Full preconditioner red. dimension   ....   250
 SOSCF                  CNVSOSCF        .... on
   Start iteration      SOSCFMaxIt      ....   150
   Startup grad/error   SOSCFStart      ....  0.003300
   Hessian update       SOSCFHessUp     .... L-BFGS
 Level Shifting         CNVShift        .... on
   Level shift para.    LevelShift      ....    0.2500
   Turn off err/grad.   ShiftErr        ....    0.0010
 Zerner damping         CNVZerner       .... off
 Static damping         CNVDamp         .... on
   Fraction old density DampFac         ....    0.7000
   Max. Damping (<1)    DampMax         ....    0.9800
   Min. Damping (>=0)   DampMin         ....    0.0000
   Turn off err/grad.   DampErr         ....    0.1000

SCF Procedure:
 Maximum # iterations   MaxIter         ....   125
 SCF integral mode      SCFMode         .... Direct
   Integral package                     .... SHARK and LIBINT hybrid scheme
 Reset frequency        DirectResetFreq ....    20
 Integral Threshold     Thresh          ....  1.000e-10 Eh
 Primitive CutOff       TCut            ....  1.000e-11 Eh

Convergence Tolerance:
 Convergence Check Mode ConvCheckMode   .... Total+1el-Energy
 Convergence forced     ConvForced      .... 0
 Energy Change          TolE            ....  1.000e-06 Eh
 1-El. energy change                    ....  1.000e-03 Eh
 Orbital Gradient       TolG            ....  5.000e-05
 Orbital Rotation angle TolX            ....  5.000e-05
 DIIS Error             TolErr          ....  1.000e-06

------------------------------
INITIAL GUESS: MODEL POTENTIAL
------------------------------
Loading Hartree-Fock densities                     ... done
Calculating cut-offs                               ... done
Initializing the effective Hamiltonian             ... done
Setting up the integral package (SHARK)            ... done
Starting the Coulomb interaction                   ... done (   0.3 sec)
Making the grid                                    ... done (   0.3 sec)
Mapping shells                                     ... done
Starting the XC term evaluation                    ... done (   0.1 sec)
  promolecular density results
     # of electrons  =    157.981669820
     EX              =   -126.954741831
     EC              =      0.209058541
     EX+EC           =   -126.745683291
Transforming the Hamiltonian                       ... done (   0.3 sec)
Diagonalizing the Hamiltonian                      ... done (   0.4 sec)
Back transforming the eigenvectors                 ... done (   0.2 sec)
Now organizing SCF variables                       ... done
                      ------------------
                      INITIAL GUESS DONE (   1.9 sec)
                      ------------------
             **** ENERGY FILE WAS UPDATED (compas3D_hc_c24h14_0pent_9_qz_nori.en.tmp) ****
Finished Guess after  17.6 sec
Maximum memory used throughout the entire GUESS-calculation: 189.0 MB


           ************************************************************
           *        Program running with 104 parallel MPI-processes   *
           *              working on a common directory               *
           ************************************************************

-------------------------------------------------------------------------------------------
                                      ORCA LEAN-SCF
                              memory conserving SCF solver
-------------------------------------------------------------------------------------------

----------------------------------------D-I-I-S--------------------------------------------
Iteration    Energy (Eh)           Delta-E    RMSDP     MaxDP     DIISErr   Damp  Time(sec)
-------------------------------------------------------------------------------------------
               ***  Starting incremental Fock matrix formation  ***
    1    -919.0573258891456589     0.00e+00  2.59e-04  2.24e-02  1.51e-01  0.700  59.9
    2    -919.2368597969032180    -1.80e-01  2.06e-04  1.84e-02  9.26e-02  0.700  53.4
                               ***Turning on AO-DIIS***
    3    -919.3438061357603601    -1.07e-01  1.44e-04  1.67e-02  5.59e-02  0.700  51.6
    4    -919.4107546298303077    -6.69e-02  3.53e-04  4.32e-02  3.86e-02  0.000  50.0
    5    -919.5573893654957374    -1.47e-01  2.69e-05  2.03e-03  4.23e-03  0.000  53.3
                              *** Initializing SOSCF ***
---------------------------------------S-O-S-C-F--------------------------------------
Iteration    Energy (Eh)           Delta-E    RMSDP     MaxDP     MaxGrad    Time(sec)
--------------------------------------------------------------------------------------
    6    -919.5577117124878441    -3.22e-04  1.42e-05  1.25e-03  1.32e-03    45.2
               *** Restarting incremental Fock matrix formation ***
    7    -919.5577956645568065    -8.40e-05  4.99e-05  4.40e-03  9.14e-04    57.6
    8    -919.5578408493176994    -4.52e-05  2.49e-05  2.90e-03  3.98e-04    42.6
    9    -919.5578509358472274    -1.01e-05  1.82e-05  1.61e-03  2.61e-04    40.5
   10    -919.5578540248409354    -3.09e-06  1.57e-05  2.19e-03  7.35e-05    38.6
   11    -919.5578540756985149    -5.09e-08  1.21e-05  1.28e-03  4.00e-05    38.2
                 **** Energy Check signals convergence ****

               *****************************************************
               *                     SUCCESS                       *
               *           SCF CONVERGED AFTER  11 CYCLES          *
               *****************************************************

             **** ENERGY FILE WAS UPDATED (compas3D_hc_c24h14_0pent_9_qz_nori.en.tmp) ****

----------------
TOTAL SCF ENERGY
----------------

Total Energy       :       -919.55785407569851 Eh          -25022.44133 eV

Components:
Nuclear Repulsion  :       1776.77974691328222 Eh           48348.63491 eV
Electronic Energy  :      -2696.33760098898074 Eh          -73371.07624 eV
One Electron Energy:      -4774.07402223199279 Eh         -129909.15860 eV
Two Electron Energy:       2077.73642124301205 Eh           56538.08236 eV

Virial components:
Potential Energy   :      -1836.35196512829134 Eh          -49969.67738 eV
Kinetic Energy     :        916.79411105259283 Eh           24947.23605 eV
Virial Ratio       :          2.00301457327200

DFT components:
N(Alpha)           :       79.000014080221 electrons
N(Beta)            :       79.000014080221 electrons
N(Total)           :      158.000028160442 electrons
E(X)               :      -40.011804173433 Eh       
E(C)               :       -2.350127334540 Eh       
E(XC)              :      -42.361931507973 Eh       

---------------
SCF CONVERGENCE
---------------

  Last Energy change         ...    5.0858e-08  Tolerance :   1.0000e-06
  Last MAX-Density change    ...    1.2845e-03  Tolerance :   1.0000e-05
  Last RMS-Density change    ...    1.2062e-05  Tolerance :   1.0000e-06
  Last DIIS Error            ...    1.3183e-03  Tolerance :   1.0000e-06
  Last Orbital Gradient      ...    4.0000e-05  Tolerance :   5.0000e-05
  Last Orbital Rotation      ...    8.8078e-05  Tolerance :   5.0000e-05


----------------
ORBITAL ENERGIES
----------------

  NO   OCC          E(Eh)            E(eV) 
   0   2.0000     -10.839838      -294.9670 
   1   2.0000     -10.839819      -294.9665 
   2   2.0000     -10.838159      -294.9213 
   3   2.0000     -10.838147      -294.9210 
   4   2.0000     -10.837596      -294.9060 
   5   2.0000     -10.836882      -294.8865 
   6   2.0000     -10.835161      -294.8397 
   7   2.0000     -10.835161      -294.8397 
   8   2.0000     -10.834911      -294.8329 
   9   2.0000     -10.834885      -294.8322 
  10   2.0000     -10.828231      -294.6512 
  11   2.0000     -10.828231      -294.6511 
  12   2.0000     -10.826989      -294.6173 
  13   2.0000     -10.826989      -294.6173 
  14   2.0000     -10.826859      -294.6138 
  15   2.0000     -10.826859      -294.6138 
  16   2.0000     -10.826734      -294.6104 
  17   2.0000     -10.826734      -294.6104 
  18   2.0000     -10.825966      -294.5895 
  19   2.0000     -10.825965      -294.5895 
  20   2.0000     -10.825841      -294.5861 
  21   2.0000     -10.825841      -294.5861 
  22   2.0000     -10.825122      -294.5665 
  23   2.0000     -10.825122      -294.5665 
  24   2.0000      -1.093437       -29.7539 
  25   2.0000      -1.067111       -29.0376 
  26   2.0000      -1.039720       -28.2922 
  27   2.0000      -1.020516       -27.7697 
  28   2.0000      -0.997625       -27.1468 
  29   2.0000      -0.968679       -26.3591 
  30   2.0000      -0.944159       -25.6919 
  31   2.0000      -0.935761       -25.4634 
  32   2.0000      -0.920265       -25.0417 
  33   2.0000      -0.901764       -24.5383 
  34   2.0000      -0.894167       -24.3315 
  35   2.0000      -0.859169       -23.3792 
  36   2.0000      -0.799028       -21.7427 
  37   2.0000      -0.781850       -21.2752 
  38   2.0000      -0.776128       -21.1195 
  39   2.0000      -0.757300       -20.6072 
  40   2.0000      -0.739406       -20.1203 
  41   2.0000      -0.735256       -20.0073 
  42   2.0000      -0.696496       -18.9526 
  43   2.0000      -0.660232       -17.9658 
  44   2.0000      -0.658281       -17.9127 
  45   2.0000      -0.640577       -17.4310 
  46   2.0000      -0.635765       -17.3000 
  47   2.0000      -0.607286       -16.5251 
  48   2.0000      -0.590456       -16.0671 
  49   2.0000      -0.589888       -16.0517 
  50   2.0000      -0.581175       -15.8146 
  51   2.0000      -0.562134       -15.2964 
  52   2.0000      -0.550018       -14.9667 
  53   2.0000      -0.542539       -14.7632 
  54   2.0000      -0.541858       -14.7447 
  55   2.0000      -0.529638       -14.4122 
  56   2.0000      -0.518708       -14.1148 
  57   2.0000      -0.517265       -14.0755 
  58   2.0000      -0.509054       -13.8521 
  59   2.0000      -0.499170       -13.5831 
  60   2.0000      -0.496593       -13.5130 
  61   2.0000      -0.487573       -13.2675 
  62   2.0000      -0.486531       -13.2392 
  63   2.0000      -0.483550       -13.1581 
  64   2.0000      -0.452824       -12.3220 
  65   2.0000      -0.450483       -12.2583 
  66   2.0000      -0.449618       -12.2347 
  67   2.0000      -0.432337       -11.7645 
  68   2.0000      -0.429195       -11.6790 
  69   2.0000      -0.421974       -11.4825 
  70   2.0000      -0.404058       -10.9950 
  71   2.0000      -0.397764       -10.8237 
  72   2.0000      -0.371580       -10.1112 
  73   2.0000      -0.335018        -9.1163 
  74   2.0000      -0.332705        -9.0534 
  75   2.0000      -0.316003        -8.5989 
  76   2.0000      -0.287099        -7.8124 
  77   2.0000      -0.272455        -7.4139 
  78   2.0000      -0.222591        -6.0570 
  79   0.0000      -0.017254        -0.4695 
  80   0.0000       0.025788         0.7017 
  81   0.0000       0.035206         0.9580 
  82   0.0000       0.061787         1.6813 
  83   0.0000       0.074789         2.0351 
  84   0.0000       0.076556         2.0832 
  85   0.0000       0.079154         2.1539 
  86   0.0000       0.079236         2.1561 
  87   0.0000       0.083877         2.2824 
  88   0.0000       0.090173         2.4537 
  89   0.0000       0.091578         2.4920 
*Only the first 10 virtual orbitals were printed.
-------
TIMINGS
-------

Total SCF time: 0 days 0 hours 9 min 7 sec 

Total time                  ....     547.900 sec
Sum of individual times     ....     547.757 sec  (100.0%)

SCF preparation             ....      15.362 sec  (  2.8%)
Fock matrix formation       ....     510.996 sec  ( 93.3%)
  Startup                   ....       1.454 sec  (  0.3% of F)
  Coulomb+Exchange Fock     ....     497.620 sec  ( 97.4% of F)
  XC integration            ....       8.534 sec  (  1.7% of F)
    XC Preparation          ....       0.000 sec  (  0.0% of XC)
    Basis function eval.    ....       0.985 sec  ( 11.5% of XC)
    Density eval.           ....       1.624 sec  ( 19.0% of XC)
    XC-Functional eval.     ....       0.030 sec  (  0.3% of XC)
    XC-Potential eval.      ....       1.277 sec  ( 15.0% of XC)
Diagonalization             ....       0.000 sec  (  0.0%)
Density matrix formation    ....       3.147 sec  (  0.6%)
Total Energy calculation    ....       1.488 sec  (  0.3%)
Population analysis         ....       0.000 sec  (  0.0%)
Orbital Transformation      ....       2.316 sec  (  0.4%)
Orbital Orthonormalization  ....       0.000 sec  (  0.0%)
DIIS solution               ....       9.914 sec  (  1.8%)
SOSCF solution              ....       4.432 sec  (  0.8%)
Finished LeanSCF after 548.5 sec

Maximum memory used throughout the entire LEANSCF-calculation: 236.9 MB


           ************************************************************
           *        Program running with 104 parallel MPI-processes   *
           *              working on a common directory               *
           ************************************************************

------------------------------------------------------------------------------
                                ORCA  MP2 
------------------------------------------------------------------------------


----------
MP2 ENERGY (disk based algorithm)
----------

Dimension of the basis                      ... 1788
Memory devoted to MP2                       ... 4096 MB   
Data format for buffers                     ... DOUBLE
Compression type for matrix containers      ... UNCOMPRESSED
Scaling for aa/bb pairs                     ...   5.710e-02
Scaling for ab pairs                        ...   5.979e-01
Overall scaling of the MP2 energy           ...   1.000e+00

-------------------------
SHARK HALF TRANSFORMATION (Exchange order)
-------------------------

Number of basis functions                   ...   1788
Number of operators                         ...      1
   Operator  0:    0-  78 (p-index in (p*|q*))
   Operator  0:    0-  78 (q-index in (p*|q*)
Integral generator used                     ... SHARK
Contraction scheme used                     ... SEGMENTED CONTRACTION
MaxCore in resort                           ...   4096 MB

Half transformed integrals for op=   0      ... compas3D_hc_c24h14_0pent_9_qz_nori.SHARK_MNPQ0.tmp
Resorted half transformed integrals         ... compas3D_hc_c24h14_0pent_9_qz_nori.KAO_aa.tmp


ORCA finished by error termination in MP2
Calling Command: mpirun -np 104  /apps/orca/6.0.1/orca_mp2_mpi compas3D_hc_c24h14_0pent_9_qz_nori.mp2inp.tmp compas3D_hc_c24h14_0pent_9_qz_nori 
[file orca_tools/qcmsg.cpp, line 394]: 
  .... aborting the run

