
                                 *****************
                                 * O   R   C   A *
                                 *****************

                                            #,                                       
                                            ###                                      
                                            ####                                     
                                            #####                                    
                                            ######                                   
                                           ########,                                 
                                     ,,################,,,,,                         
                               ,,#################################,,                 
                          ,,##########################################,,             
                       ,#########################################, ''#####,          
                    ,#############################################,,   '####,        
                  ,##################################################,,,,####,       
                ,###########''''           ''''###############################       
              ,#####''   ,,,,##########,,,,          '''####'''          '####       
            ,##' ,,,,###########################,,,                        '##       
           ' ,,###''''                  '''############,,,                           
         ,,##''                                '''############,,,,        ,,,,,,###''
      ,#''                                            '''#######################'''  
     '                                                          ''''####''''         
             ,#######,   #######,   ,#######,      ##                                
            ,#'     '#,  ##    ##  ,#'     '#,    #''#        ,####,   ,####,        
            ##       ##  ##   ,#'  ##            #'  '#       #'       #'  '#        
            ##       ##  #######   ##           ,######,      #####,   #    #        
            '#,     ,#'  ##    ##  '#,     ,#' ,#      #,     #,   #   #,  ,#        
             '#######'   ##     ##  '#######'  #'      '#     '####' # '####'        



                #########################################################
                #                        -***-                          #
                #          Department of theory and spectroscopy        #
                #                                                       #
                #                      Frank Neese                      #
                #                                                       #
                #     Directorship, Architecture, Infrastructure        #
                #                    SHARK, DRIVERS                     #
                #        Core code/Algorithms in most modules           #
                #                                                       #
                #        Max Planck Institute fuer Kohlenforschung      #
                #                Kaiser Wilhelm Platz 1                 #
                #                 D-45470 Muelheim/Ruhr                 #
                #                      Germany                          #
                #                                                       #
                #                  All rights reserved                  #
                #                        -***-                          #
                #########################################################


                         Program Version 6.0.1  -  RELEASE   -


 With contributions from (in alphabetic order):
[Max-Planck-Institut fuer Kohlenforschung]                               
  Daniel Aravena         : Magnetic Suceptibility                        
  Michael Atanasov       : Ab Initio Ligand Field Theory (pilot matlab implementation)
  Alexander A. Auer      : GIAO ZORA, VPT2 properties, NMR spectrum      
  Ute Becker             : All parallelization in ORCA, NUMFREQ, NUMCALC 
  Giovanni Bistoni       : ED, misc. LED, open-shell LED, HFLD           
  Martin Brehm           : Molecular dynamics                            
  Dmytro Bykov           : pre 5.0 version of the SCF Hessian            
  Marcos Casanova-Páez   : Triplet and SCS-CIS(D). UHF-(DLPNO)-IP/EA/STEOM-CCSD. UHF-CVS-IP/STEOM-CCSD   
  Vijay G. Chilkuri      : MRCI spin determinant printing, contributions to CSF-ICE 
  Pauline Colinet        : FMM embedding                                 
  Dipayan Datta          : RHF DLPNO-CCSD density                        
  Achintya Kumar Dutta   : EOM-CC, STEOM-CC                              
  Nicolas Foglia         : Exact transition moments, OPA infrastructure, MCD improvements    
  Dmitry Ganyushin       : Spin-Orbit,Spin-Spin,Magnetic field MRCI      
  Miquel Garcia-Rates    : C-PCM and meta-GGA Hessian, CCSD/C-PCM, Gaussian charge scheme 
  Tiago L. C. Gouveia    : GS-ROHF, GS-ROCIS                             
  Yang Guo               : DLPNO-NEVPT2, F12-NEVPT2, CIM, IAO-localization        
  Andreas Hansen         : Spin unrestricted coupled pair/coupled cluster methods 
  Ingolf Harden          : AUTO-CI MPn and infrastructure                
  Benjamin Helmich-Paris : MC-RPA, TRAH-(SCF,CASSCF), AVAS, COSX integrals, SCF dyn. polar. 
  Lee Huntington         : MR-EOM, pCC                                   
  Robert Izsak           : Overlap fitted RIJCOSX, COSX-SCS-MP3, EOM     
  Riya Kayal             : Wick's Theorem for AUTO-CI, AUTO-CI UHF-CCSDT 
  Emily Kempfer          : AUTO-CI, RHF CISDT and CCSDT                  
  Christian Kollmar      : KDIIS, OOCD, Brueckner-CCSD(T), CCSD density, CASPT2, CASPT2-K, improved NEVPT2 
  Axel Koslowski         : Symmetry handling                             
  Simone Kossmann        : meta-GGA functionals, TD-DFT gradient, OOMP2, (MP2 Hessian; deprecated post 5.0) 
  Lucas Lang             : DCDCAS                                        
  Marvin Lechner         : AUTO-CI (C++ implementation), FIC-MRCC        
  Spencer Leger          : CASSCF response                               
  Dagmar Lenk            : GEPOL surface, SMD, ORCA-2-JSON               
  Dimitrios Liakos       : Extrapolation schemes; Compound Job, initial MDCI parallelization 
  Dimitrios Manganas     : Further ROCIS development; embedding schemes. LFT, Crystal Embedding 
  Dimitrios Pantazis     : SARC Basis sets                               
  Anastasios Papadopoulos: AUTO-CI, single reference methods and gradients 
  Taras Petrenko         : pre 6.0 DFT Hessian and TD-DFT gradient, (ASA, deprecated), ECA, 1-Electron XAS/XES, NRVS 
  Peter Pinski           : DLPNO-MP2, DLPNO-MP2 Gradient                 
  Christoph Reimann      : Effective Core Potentials                     
  Marius Retegan         : Local ZFS, SOC                                
  Christoph Riplinger    : Optimizer, TS searches, QM/MM, DLPNO-CCSD(T), (RO)-DLPNO pert. Triples 
  Michael Roemelt        : Original ROCIS implementation                 
  Masaaki Saitow         : Open-shell DLPNO-CCSD energy and density      
  Barbara Sandhoefer     : DKH picture change effects                    
  Kantharuban Sivalingam : CASSCF convergence/infrastructure, NEVPT2 and variants, FIC-MRCI 
  Bernardo de Souza      : ESD, SOC TD-DFT                               
  Georgi L. Stoychev     : AutoAux, RI-MP2 NMR, DLPNO-MP2 response, X2C  
  Van Anh Tran           : RI-MP2 g-tensors                              
  Willem Van den Heuvel  : Paramagnetic NMR                              
  Zikuan Wang            : NOTCH, Electric field optimization            
  Frank Wennmohs         : Technical directorship and infrastructure     
  Hang Xu                : AUTO-CI-Response properties                   
                                                                         
[FACCTs GmbH]                                                            
  Markus Bursch, Miquel Garcia-Rates, Christoph Riplinger, Bernardo de Souza, Georgi L. Stoychev 
                                                                 
  APM, Basis sets (HGBS, AHGBS, def-TZVP (Ac-Lr), def2-XVPD (La-Lu)), CI-OPT, improved COSX, DLPNO-Multilevel,           
  DOCKER, DRACO, updates on ESD, GOAT, IRC, LR-CPCM, MBIS, meta-GGA TD-DFT gradient, ML-optimized integration grids, 
  MM, NACMEs, nearIR, NEB, NEB-TS, NL-DFT gradient (VV10), 2- and 3-layer-ONIOM, interface openCOSMO-RS, QMMM,   
  Crystal-QMMM, SF, symmetry and pop. for TD-DFT, r2SCAN hybrids, SOLVATOR                                   
                                                                         
[Other institutions]                                                     
  V. Asgeirsson          : NEB                                           
  Christoph Bannwarth    : sTDA-DFT, sTD-DFT, PBEh-3c, B97-3c, D3        
  Sebastian Ehlert       : rSCAN, r2SCAN, r2SCAN-3c, D4, dhf basis sets  
  Marvin Friede          : D4 for Fr, Ra, Ac-Lr                          
  Lars Goerigk           : TD-DFT with DH, B97 family of functionals     
  Stefan Grimme          : VdW corrections, initial TS optimization, DFT functionals, gCP, sTDA/sTD-DF 
  Waldemar Hujo          : DFT-NL                                        
  H. Jonsson             : NEB                                           
  Holger Kruse           : gCP                                           
  Marcel Mueller         : wB97X-3c, vDZP basis set                      
  Hagen Neugebauer       : wr2SCAN                                       
  Tobias Risthaus        : range-separated hybrid DFT                    
  Lukas Wittmann         : regularized MP2, r2SCAN double-hybrids, wr2SCAN        
                                                                         
We gratefully acknowledge several colleagues who have allowed us to      
interface, adapt or use parts of their codes:                            
  Ed Valeev, F. Pavosevic, A. Kumar             : LibInt (2-el integral package), F12 methods 
  Garnet Chan, S. Sharma, J. Yang, R. Olivares  : DMRG                   
  Ulf Ekstrom                                   : XCFun DFT Library      
  Mihaly Kallay                                 : mrcc  (arbitrary order and MRCC methods)
  Frank Weinhold                                : gennbo (NPA and NBO analysis)           
  Simon Mueller                                 : openCOSMO-RS                            
  Christopher J. Cramer and Donald G. Truhlar   : smd solvation model                     
  S Lehtola, MJT Oliveira, MAL Marques          : LibXC Library                           
  Liviu Ungur et al                             : ANISO software                          


 Your calculation uses the libint2 library for the computation of 2-el integrals
 For citations please refer to: http://libint.valeyev.net

 Your ORCA version has been built with support for libXC version: 6.2.2
 For citations please refer to: https://libxc.gitlab.io

 This ORCA versions uses:
   CBLAS   interface :  Fast vector & matrix operations
   LAPACKE interface :  Fast linear algebra routines
   SCALAPACK package :  Parallel linear algebra routines
   Shared memory     :  Shared parallel matrices
   BLAS/LAPACK       :  OpenBLAS 0.3.27  USE64BITINT DYNAMIC_ARCH NO_AFFINITY SapphireRapids SINGLE_THREADED
        Core in use  :  SapphireRapids
   Copyright (c) 2011-2014, The OpenBLAS Project




***************************************
The coordinates will be read from file: /scratch/kx58/rs2200/dhdft/inputs/compas3x-xyzs/hc_c24h14_0pent_4.xyz
***************************************


Your calculation utilizes the atom-pairwise dispersion correction
based on EEQ partial charges (D4)


================================================================================

----- Orbital basis set information -----
Your calculation utilizes the basis: def2-QZVPP
   F. Weigend and R. Ahlrichs, Phys. Chem. Chem. Phys. 7, 3297 (2005).

================================================================================
                                        WARNINGS
                       Please study these warnings very carefully!
================================================================================


WARNING: No MP2 level density has been requested!
         To calculate MP2 level properties use
         %mp2 Density relaxed end
         or
         %mp2 Density unrelaxed end
         Otherwise for double-hybrid DFT only the energy is correct!

================================================================================
                                       INPUT FILE
================================================================================
NAME = compas3x_hc_c24h14_0pent_4_qz_nori.inp
|  1> ! RKS revDSD-PBEP86-D4/2021 defgrid3  NORI NOPOP NoFrozencore NoUseSym
|  2> 
|  3> %basis
|  4> Basis "def2-QZVPP"
|  5> 
|  6> 
|  7> end
|  8> 
|  9> %method
| 10> ScalHFX 0.69
| 11> ScalDFX 0.31
| 12> ScalDFC 0.4038
| 13> ScalLDAC 0.4038
| 14> 
| 15> D4S6 0.4612
| 16> D4S8 0.0
| 17> D4A1 0.44
| 18> D4A2 3.60
| 19> end
| 20> 
| 21> %mp2
| 22> PS 0.5979
| 23> PT 0.0571
| 24> end
| 25> 
| 26> %pal
| 27> nprocs 104
| 28> end
| 29> 
| 30> *XYZFILE 0 1 /scratch/kx58/rs2200/dhdft/inputs/compas3x-xyzs/hc_c24h14_0pent_4.xyz
| 31> 
| 32>                          ****END OF INPUT****
================================================================================

                       ****************************
                       * Single Point Calculation *
                       ****************************

---------------------------------
CARTESIAN COORDINATES (ANGSTROEM)
---------------------------------
  C      1.418271   -0.749295    0.003013
  C      0.656920   -1.942740    0.000970
  C     -0.768644   -1.901287    0.002211
  C     -1.459358   -0.665620    0.005918
  C     -0.698352    0.575902    0.003711
  C      0.730688    0.534347    0.001654
  C      2.805864   -0.852109    0.006004
  C      3.445751   -2.082574    0.004846
  C      2.713666   -3.246132    0.000593
  C      1.316369   -3.196316   -0.000944
  C      0.547756   -4.395314   -0.003874
  C     -0.802182   -4.356061   -0.002937
  C     -1.499821   -3.114427    0.001174
  C     -2.897648   -3.082969    0.004766
  C     -3.560879   -1.878840    0.010184
  C     -2.850575   -0.687635    0.010763
  C     -1.326343    1.808004    0.001899
  C     -0.621951    3.017747   -0.002106
  C      0.796297    2.976503   -0.005015
  C      1.429208    1.727871   -0.003076
  C     -1.270779    4.272996   -0.004043
  C     -0.545859    5.429246   -0.008816
  C      0.860446    5.388349   -0.011959
  C      1.516960    4.191924   -0.010080
  H      3.421618    0.032474    0.009744
  H      4.525525   -2.119697    0.007264
  H      3.206691   -4.207573   -0.000910
  H      1.076962   -5.337745   -0.006451
  H     -1.385258   -5.266149   -0.004766
  H     -3.445707   -4.014138    0.003841
  H     -4.640983   -1.853158    0.013962
  H     -3.413885    0.231231    0.015330
  H     -2.402927    1.874996    0.002869
  H      2.507861    1.732183   -0.006202
  H     -2.351434    4.299547   -0.001813
  H     -1.045312    6.387185   -0.010458
  H      1.414712    6.315643   -0.015883
  H      2.597332    4.155630   -0.012384

----------------------------
CARTESIAN COORDINATES (A.U.)
----------------------------
  NO LB      ZA    FRAG     MASS         X           Y           Z
   0 C     6.0000    0    12.011    2.680145   -1.415962    0.005694
   1 C     6.0000    0    12.011    1.241399   -3.671246    0.001833
   2 C     6.0000    0    12.011   -1.452527   -3.592912    0.004178
   3 C     6.0000    0    12.011   -2.757786   -1.257839    0.011183
   4 C     6.0000    0    12.011   -1.319693    1.088298    0.007014
   5 C     6.0000    0    12.011    1.380801    1.009770    0.003126
   6 C     6.0000    0    12.011    5.302315   -1.610252    0.011346
   7 C     6.0000    0    12.011    6.511525   -3.935495    0.009157
   8 C     6.0000    0    12.011    5.128085   -6.134301    0.001121
   9 C     6.0000    0    12.011    2.487577   -6.040161   -0.001784
  10 C     6.0000    0    12.011    1.035110   -8.305941   -0.007321
  11 C     6.0000    0    12.011   -1.515904   -8.231762   -0.005550
  12 C     6.0000    0    12.011   -2.834252   -5.885413    0.002218
  13 C     6.0000    0    12.011   -5.475761   -5.825968    0.009007
  14 C     6.0000    0    12.011   -6.729087   -3.550492    0.019244
  15 C     6.0000    0    12.011   -5.386806   -1.299441    0.020340
  16 C     6.0000    0    12.011   -2.506425    3.416631    0.003589
  17 C     6.0000    0    12.011   -1.175318    5.702715   -0.003980
  18 C     6.0000    0    12.011    1.504783    5.624775   -0.009476
  19 C     6.0000    0    12.011    2.700811    3.265202   -0.005812
  20 C     6.0000    0    12.011   -2.401423    8.074791   -0.007641
  21 C     6.0000    0    12.011   -1.031525   10.259789   -0.016660
  22 C     6.0000    0    12.011    1.626007   10.182503   -0.022599
  23 C     6.0000    0    12.011    2.866639    7.921588   -0.019048
  24 H     1.0000    0     1.008    6.465920    0.061368    0.018413
  25 H     1.0000    0     1.008    8.552003   -4.005646    0.013728
  26 H     1.0000    0     1.008    6.059768   -7.951161   -0.001719
  27 H     1.0000    0     1.008    2.035164  -10.086877   -0.012191
  28 H     1.0000    0     1.008   -2.617759   -9.951579   -0.009007
  29 H     1.0000    0     1.008   -6.511443   -7.585621    0.007259
  30 H     1.0000    0     1.008   -8.770186   -3.501961    0.026384
  31 H     1.0000    0     1.008   -6.451308    0.436963    0.028969
  32 H     1.0000    0     1.008   -4.540873    3.543228    0.005422
  33 H     1.0000    0     1.008    4.739170    3.273351   -0.011720
  34 H     1.0000    0     1.008   -4.443566    8.124967   -0.003426
  35 H     1.0000    0     1.008   -1.975354   12.070030   -0.019762
  36 H     1.0000    0     1.008    2.673418   11.934837   -0.030015
  37 H     1.0000    0     1.008    4.908246    7.853003   -0.023402

--------------------------------
INTERNAL COORDINATES (ANGSTROEM)
--------------------------------
 C      0   0   0     0.000000000000     0.00000000     0.00000000
 C      1   0   0     1.415616784185     0.00000000     0.00000000
 C      2   1   0     1.426167481033   120.86988066     0.00000000
 C      3   2   1     1.415617378735   120.86992744     0.00000000
 C      4   3   2     1.456197797295   119.28855477     0.21527979
 C      5   4   3     1.429645288449   119.84116457   359.82455935
 C      1   2   3     1.391400034809   118.29810591   179.79711098
 C      7   1   2     1.386903486720   121.71342843     0.10480621
 C      8   7   1     1.374712137031   120.34675117     0.00000000
 C      9   8   7     1.398185045990   120.13538730   359.92164785
 C     10   9   8     1.424209511901   120.61991553   180.06866157
 C     11  10   9     1.350509021620   120.99595201   179.87938308
 C      3   2   1     1.416449349715   119.41233338   180.04985075
 C     13   3   2     1.398184988656   119.78854775   179.88722900
 C     14  13   3     1.374712045491   120.13535919   359.95701468
 C     15  14  13     1.386903503006   120.34676717     0.06528305
 C      5   4   3     1.382913437256   121.48579056   179.74442701
 C     17   5   4     1.399879566424   122.78176233   180.09084855
 C     18  17   5     1.418850839852   118.54520178     0.02821287
 C      6   5   4     1.382913286325   118.67314155   179.87452546
 C     18  17   5     1.413021421750   122.45526913   179.99489859
 C     21  18  17     1.364714770143   120.58009824   180.04197785
 C     22  21  18     1.406903231337   120.42037432     0.00000000
 C     23  22  21     1.364714766799   120.42036323     0.00000000
 H      7   1   2     1.077800391450   120.60417172   180.13052723
 H      8   7   1     1.080415214975   119.44486501   179.99994186
 H      9   8   7     1.080483611216   120.67421097   179.96418677
 H     11  10   9     1.080852312812   118.02281109   359.90458509
 H     12  11  10     1.080852334886   120.98121901   180.02443265
 H     14  13   3     1.080483616673   119.19040318   179.99421380
 H     15  14  13     1.080415313132   120.20838569   180.06122500
 H     16  15  14     1.077800305472   117.68225872   180.01394807
 H     17   5   4     1.078666323008   120.56815434     0.04835625
 H     20   6   5     1.078666427895   120.56804952   180.09029300
 H     21  18  17     1.080983964446   118.74125503     0.03354863
 H     22  21  18     1.080324763241   120.37740384   179.98935004
 H     23  22  21     1.080324952798   119.20222808   179.99031627
 H     24  23  22     1.080984005091   120.67866003   180.00596943

---------------------------
INTERNAL COORDINATES (A.U.)
---------------------------
 C      0   0   0     0.000000000000     0.00000000     0.00000000
 C      1   0   0     2.675128032692     0.00000000     0.00000000
 C      2   1   0     2.695065960257   120.86988066     0.00000000
 C      3   2   1     2.675129156229   120.86992744     0.00000000
 C      4   3   2     2.751815033708   119.28855477     0.21527979
 C      5   4   3     2.701638063820   119.84116457   359.82455935
 C      1   2   3     2.629365008517   118.29810591   179.79711098
 C      7   1   2     2.620867764081   121.71342843     0.10480621
 C      8   7   1     2.597829451967   120.34675117     0.00000000
 C      9   8   7     2.642186821464   120.13538730   359.92164785
 C     10   9   8     2.691365934819   120.61991553   180.06866157
 C     11  10   9     2.552092192251   120.99595201   179.87938308
 C      3   2   1     2.676701353532   119.41233338   180.04985075
 C     13   3   2     2.642186713120   119.78854775   179.88722900
 C     14  13   3     2.597829278980   120.13535919   359.95701468
 C     15  14  13     2.620867794856   120.34676717     0.06528305
 C      5   4   3     2.613327663334   121.48579056   179.74442701
 C     17   5   4     2.645389001015   122.78176233   180.09084855
 C     18  17   5     2.681239512205   118.54520178     0.02821287
 C      6   5   4     2.613327378116   118.67314155   179.87452546
 C     18  17   5     2.670223508472   122.45526913   179.99489859
 C     21  18  17     2.578937166487   120.58009824   180.04197785
 C     22  21  18     2.658661804155   120.42037432     0.00000000
 C     23  22  21     2.578937160168   120.42036323     0.00000000
 H      7   1   2     2.036747566873   120.60417172   180.13052723
 H      8   7   1     2.041688867225   119.44486501   179.99994186
 H      9   8   7     2.041818117388   120.67421097   179.96418677
 H     11  10   9     2.042514862430   118.02281109   359.90458509
 H     12  11  10     2.042514904143   120.98121901   180.02443265
 H     14  13   3     2.041818127700   119.19040318   179.99421380
 H     15  14  13     2.041689052714   120.20838569   180.06122500
 H     16  15  14     2.036747404398   117.68225872   180.01394807
 H     17   5   4     2.038383940368   120.56815434     0.04835625
 H     20   6   5     2.038384138577   120.56804952   180.09029300
 H     21  18  17     2.042763647964   118.74125503     0.03354863
 H     22  21  18     2.041517938219   120.37740384   179.98935004
 H     23  22  21     2.041518296430   119.20222808   179.99031627
 H     24  23  22     2.042763724771   120.67866003   180.00596943

---------------------
BASIS SET INFORMATION
---------------------
There are 2 groups of distinct atoms

 Group   1 Type C   : 15s8p3d2f1g contracted to 7s4p3d2f1g pattern {8211111/5111/111/11/1}
 Group   2 Type H   : 7s3p2d1f contracted to 4s3p2d1f pattern {4111/111/11/1}

Atom   0C    basis set group =>   1
Atom   1C    basis set group =>   1
Atom   2C    basis set group =>   1
Atom   3C    basis set group =>   1
Atom   4C    basis set group =>   1
Atom   5C    basis set group =>   1
Atom   6C    basis set group =>   1
Atom   7C    basis set group =>   1
Atom   8C    basis set group =>   1
Atom   9C    basis set group =>   1
Atom  10C    basis set group =>   1
Atom  11C    basis set group =>   1
Atom  12C    basis set group =>   1
Atom  13C    basis set group =>   1
Atom  14C    basis set group =>   1
Atom  15C    basis set group =>   1
Atom  16C    basis set group =>   1
Atom  17C    basis set group =>   1
Atom  18C    basis set group =>   1
Atom  19C    basis set group =>   1
Atom  20C    basis set group =>   1
Atom  21C    basis set group =>   1
Atom  22C    basis set group =>   1
Atom  23C    basis set group =>   1
Atom  24H    basis set group =>   2
Atom  25H    basis set group =>   2
Atom  26H    basis set group =>   2
Atom  27H    basis set group =>   2
Atom  28H    basis set group =>   2
Atom  29H    basis set group =>   2
Atom  30H    basis set group =>   2
Atom  31H    basis set group =>   2
Atom  32H    basis set group =>   2
Atom  33H    basis set group =>   2
Atom  34H    basis set group =>   2
Atom  35H    basis set group =>   2
Atom  36H    basis set group =>   2
Atom  37H    basis set group =>   2


           ************************************************************
           *        Program running with 104 parallel MPI-processes   *
           *              working on a common directory               *
           ************************************************************
------------------------------------------------------------------------------
                             ORCA STARTUP CALCULATIONS
------------------------------------------------------------------------------
------------------------------------------------------------------------------
                   ___                                                        
                  /   \      - P O W E R E D   B Y -                         
                 /     \                                                     
                 |  |  |   _    _      __       _____    __    __             
                 |  |  |  | |  | |    /  \     |  _  \  |  |  /  |          
                  \  \/   | |  | |   /    \    | | | |  |  | /  /          
                 / \  \   | |__| |  /  /\  \   | |_| |  |  |/  /          
                |  |  |   |  __  | /  /__\  \  |    /   |      \           
                |  |  |   | |  | | |   __   |  |    \   |  |\   \          
                \     /   | |  | | |  |  |  |  | |\  \  |  | \   \       
                 \___/    |_|  |_| |__|  |__|  |_| \__\ |__|  \__/        
                                                                              
                      - O R C A' S   B I G   F R I E N D -                    
                                      &                                       
                       - I N T E G R A L  F E E D E R -                       
                                                                              
 v1 FN, 2020, v2 2021, v3 2022-2024                                           
------------------------------------------------------------------------------


----------------------
SHARK INTEGRAL PACKAGE
----------------------

Number of atoms                             ...     38
Number of basis functions                   ...   1788
Number of shells                            ...    548
Maximum angular momentum                    ...      4
Integral batch strategy                     ... SHARK/LIBINT Hybrid
RI-J (if used) integral strategy            ... SPLIT-RIJ (Revised 2003 algorithm where possible)
Printlevel                                  ...      1
Contraction scheme used                     ... SEGMENTED contraction
Prescreening option                         ... SCHWARTZ
   Thresh                                   ... 1.000e-10
   Tcut                                     ... 1.000e-11
   Tpresel                                  ... 1.000e-11 
Coulomb Range Separation                    ... NOT USED
Exchange Range Separation                   ... NOT USED
Multipole approximations                    ... NOT USED
Finite Nucleus Model                        ... NOT USED
CABS basis                                  ... NOT available
Auxiliary Coulomb fitting basis             ... NOT available
Auxiliary J/K fitting basis                 ... NOT available
Auxiliary Correlation fitting basis         ... NOT available
Auxiliary 'external' fitting basis          ... NOT available

Checking pre-screening integrals            ... done (  0.0 sec) Dimension = 548
Check shell pair data                       ... done (  0.0 sec)
Shell pair information
Shell pair cut-off parameter TPreSel        ...   1.0e-11
Total number of shell pairs                 ...    150426
Shell pairs after pre-screening             ...     89598
Total number of primitive shell pairs       ...    386901
Primitive shell pairs kept                  ...    159333
          la=0 lb=0:  13622 shell pairs
          la=1 lb=0:  20131 shell pairs
          la=1 lb=1:   7012 shell pairs
          la=2 lb=0:  12289 shell pairs
          la=2 lb=1:   9108 shell pairs
          la=2 lb=2:   2923 shell pairs
          la=3 lb=0:   7370 shell pairs
          la=3 lb=1:   5458 shell pairs
          la=3 lb=2:   3319 shell pairs
          la=3 lb=3:   1003 shell pairs
          la=4 lb=0:   2906 shell pairs
          la=4 lb=1:   2159 shell pairs
          la=4 lb=2:   1339 shell pairs
          la=4 lb=3:    786 shell pairs
          la=4 lb=4:    173 shell pairs

Calculating one electron integrals          ... done (  0.4 sec)
Calculating Nuclear repulsion               ... done (  0.0 sec) ENN=   1798.030496865987 Eh

Diagonalization of the overlap matrix:
Smallest eigenvalue                        ... 6.180e-08
Time for diagonalization                   ...    0.582 sec
Threshold for overlap eigenvalues          ... 1.000e-07
Number of eigenvalues below threshold      ... 1
Smallest eigenvalue above threshold        ... 1.151e-06

IMPORTANT:
Smallest eigenvalue of S below the DiffSThresh (1.000e-06) while
Thresh>1e-12 and/or TCut>1e-13! In order to avoid SCF convergence issues,
Thresh will be set to at least 1e-12 and TCut to at least 1e-13.
This can be turned off by adding %SCF DiffSThresh -1 END to the input.

Time for construction of square roots      ...    0.408 sec
Total time needed                          ...    1.041 sec

-------------------
DFT GRID GENERATION
-------------------

General Integration Accuracy     IntAcc      ... 4.959
Radial Grid Type                 RadialGrid  ... OptM3 with GC (2021)
Angular Grid (max. ang.)         AngularGrid ... 6 (Lebedev-590)
Angular grid pruning method      GridPruning ... 4 (adaptive)
Weight generation scheme         WeightScheme... mBecke (2022)
Basis function cutoff            BFCut       ... 1.0000e-10
Integration weight cutoff        WCut        ... 1.0000e-14
Partially contracted basis set               ... off
Rotationally invariant grid construction     ... off
Angular grids for H and He will be reduced by one unit
Diffuse basis detected: some atoms will have their outermost
                        angular grid increased by 1.

Total number of grid points                  ...   467550
Total number of batches                      ...     7324
Average number of points per batch           ...       63
Average number of grid points per atom       ...    12304
Initializing property integral containers    ... done (  0.0 sec)

SHARK setup successfully completed in   7.7 seconds

Maximum memory used throughout the entire STARTUP-calculation: 188.4 MB


           ************************************************************
           *        Program running with 104 parallel MPI-processes   *
           *              working on a common directory               *
           ************************************************************
-------------------------------------------------------------------------------
                                 ORCA GUESS
                   Start orbitals & Density for SCF / CASSCF
-------------------------------------------------------------------------------

------------
SCF SETTINGS
------------
Hamiltonian:
 Density Functional     Method          .... DFT(GTOs)
 Exchange Functional    Exchange        .... PBE
   PBE kappa parameter   XKappa         ....  0.804000
   PBE mue parameter    XMuePBE         ....  0.219520
 Correlation Functional Correlation     .... P86
 LDA part of GGA corr.  LDAOpt          .... VWN-5
 Gradients option       PostSCFGGA      .... off
 Hybrid DFT is turned on
   Fraction HF Exchange ScalHFX         ....  0.690000
   Scaling of DF-GGA-X  ScalDFX         ....  0.310000
   Scaling of DF-GGA-C  ScalDFC         ....  0.403800
   Scaling of DF-LDA-C  ScalLDAC        ....  0.403800
   Perturbative correction              ....  1.000000


General Settings:
 Integral files         IntName         .... compas3x_hc_c24h14_0pent_4_qz_nori
 Hartree-Fock type      HFTyp           .... RHF
 Total Charge           Charge          ....    0
 Multiplicity           Mult            ....    1
 Number of Electrons    NEL             ....  158
 Basis Dimension        Dim             .... 1788
 Nuclear Repulsion      ENuc            ....   1798.0304968660 Eh

Convergence Acceleration:
 AO-DIIS                CNVDIIS         .... on
   Start iteration      DIISMaxIt       ....    12
   Startup error        DIISStart       ....  0.200000
   # of expansion vecs  DIISMaxEq       ....     5
   Bias factor          DIISBfac        ....   1.050
   Max. coefficient     DIISMaxC        ....  10.000
 MO-DIIS                CNVKDIIS        .... off
 Trust-Rad. Augm. Hess. CNVTRAH         .... auto
   Auto Start mean grad. ratio tolernc. ....  1.125000
   Auto Start start iteration           ....    50
   Auto Start num. interpolation iter.  ....    10
   Max. Number of Micro iterations      ....    24
   Max. Number of Macro iterations      .... Maxiter - #DIIS iter
   Number of Davidson start vectors     ....     2
   Converg. threshold    (grad. norm)   ....   5.000e-05
   Grad. Scal. Fac. for Micro threshold ....   0.100
   Minimum threshold for Micro iter.    ....   1.000e-02
   NR start threshold (gradient norm)   ....   1.000e-04
   Initial trust radius                 ....   0.400
   Minimum AH scaling param. (alpha)    ....   1.000
   Maximum AH scaling param. (alpha)    .... 1000.000
   Quad. conv. algorithm                .... NR
   White noise on init. David. guess    .... on
   Maximum white noise                  ....   0.010
   Pseudo random numbers                .... off
   Inactive MOs                         .... canonical
   Orbital update algorithm             .... Taylor
   Preconditioner                       .... Diag
   Full preconditioner red. dimension   ....   250
 SOSCF                  CNVSOSCF        .... on
   Start iteration      SOSCFMaxIt      ....   150
   Startup grad/error   SOSCFStart      ....  0.003300
   Hessian update       SOSCFHessUp     .... L-BFGS
 Level Shifting         CNVShift        .... on
   Level shift para.    LevelShift      ....    0.2500
   Turn off err/grad.   ShiftErr        ....    0.0010
 Zerner damping         CNVZerner       .... off
 Static damping         CNVDamp         .... on
   Fraction old density DampFac         ....    0.7000
   Max. Damping (<1)    DampMax         ....    0.9800
   Min. Damping (>=0)   DampMin         ....    0.0000
   Turn off err/grad.   DampErr         ....    0.1000

SCF Procedure:
 Maximum # iterations   MaxIter         ....   125
 SCF integral mode      SCFMode         .... Direct
   Integral package                     .... SHARK and LIBINT hybrid scheme
 Reset frequency        DirectResetFreq ....    20
 Integral Threshold     Thresh          ....  1.000e-12 Eh
 Primitive CutOff       TCut            ....  1.000e-13 Eh

Convergence Tolerance:
 Convergence Check Mode ConvCheckMode   .... Total+1el-Energy
 Convergence forced     ConvForced      .... 0
 Energy Change          TolE            ....  1.000e-06 Eh
 1-El. energy change                    ....  1.000e-03 Eh
 Orbital Gradient       TolG            ....  5.000e-05
 Orbital Rotation angle TolX            ....  5.000e-05
 DIIS Error             TolErr          ....  1.000e-06

------------------------------
INITIAL GUESS: MODEL POTENTIAL
------------------------------
Loading Hartree-Fock densities                     ... done
Calculating cut-offs                               ... done
Initializing the effective Hamiltonian             ... done
Setting up the integral package (SHARK)            ... done
Starting the Coulomb interaction                   ... done (   0.3 sec)
Making the grid                                    ... done (   0.3 sec)
Mapping shells                                     ... done
Starting the XC term evaluation                    ... done (   0.2 sec)
  promolecular density results
     # of electrons  =    157.980137073
     EX              =   -127.048284462
     EC              =      0.200376478
     EX+EC           =   -126.847907983
Transforming the Hamiltonian                       ... done (   0.3 sec)
Diagonalizing the Hamiltonian                      ... done (   0.4 sec)
Back transforming the eigenvectors                 ... done (   0.2 sec)
Now organizing SCF variables                       ... done
                      ------------------
                      INITIAL GUESS DONE (   2.1 sec)
                      ------------------
             **** ENERGY FILE WAS UPDATED (compas3x_hc_c24h14_0pent_4_qz_nori.en.tmp) ****
Finished Guess after  17.7 sec
Maximum memory used throughout the entire GUESS-calculation: 194.6 MB


           ************************************************************
           *        Program running with 104 parallel MPI-processes   *
           *              working on a common directory               *
           ************************************************************

-------------------------------------------------------------------------------------------
                                      ORCA LEAN-SCF
                              memory conserving SCF solver
-------------------------------------------------------------------------------------------

----------------------------------------D-I-I-S--------------------------------------------
Iteration    Energy (Eh)           Delta-E    RMSDP     MaxDP     DIISErr   Damp  Time(sec)
-------------------------------------------------------------------------------------------
               ***  Starting incremental Fock matrix formation  ***
    1    -919.0505805425204926     0.00e+00  2.55e-04  2.35e-02  1.54e-01  0.700  64.6
    2    -919.2369921581980634    -1.86e-01  2.02e-04  1.95e-02  9.54e-02  0.700  60.0
                               ***Turning on AO-DIIS***
    3    -919.3476674910721158    -1.11e-01  1.36e-04  1.44e-02  5.77e-02  0.700  56.1
    4    -919.4168716151034459    -6.92e-02  3.24e-04  3.43e-02  3.98e-02  0.000  54.9
    5    -919.5682059449277403    -1.51e-01  2.47e-05  1.42e-03  4.26e-03  0.000  57.7
                              *** Initializing SOSCF ***
---------------------------------------S-O-S-C-F--------------------------------------
Iteration    Energy (Eh)           Delta-E    RMSDP     MaxDP     MaxGrad    Time(sec)
--------------------------------------------------------------------------------------
    6    -919.5684910327286161    -2.85e-04  9.25e-06  4.47e-04  1.24e-03    49.3
               *** Restarting incremental Fock matrix formation ***
    7    -919.5685546490071829    -6.36e-05  1.06e-05  7.09e-04  6.31e-04    67.9
    8    -919.5685785635869252    -2.39e-05  7.41e-06  3.95e-04  3.55e-04    42.6
    9    -919.5685861423485221    -7.58e-06  4.95e-06  3.75e-04  1.86e-04    41.1
   10    -919.5685880552427989    -1.91e-06  1.46e-06  1.10e-04  2.79e-05    38.7
   11    -919.5685879746306455     8.06e-08  1.17e-06  1.68e-04  3.38e-05    33.5
                 **** Energy Check signals convergence ****

               *****************************************************
               *                     SUCCESS                       *
               *           SCF CONVERGED AFTER  11 CYCLES          *
               *****************************************************

             **** ENERGY FILE WAS UPDATED (compas3x_hc_c24h14_0pent_4_qz_nori.en.tmp) ****

----------------
TOTAL SCF ENERGY
----------------

Total Energy       :       -919.56858797463065 Eh          -25022.73341 eV

Components:
Nuclear Repulsion  :       1798.03049686598661 Eh           48926.89722 eV
Electronic Energy  :      -2717.59908484061725 Eh          -73949.63063 eV
One Electron Energy:      -4816.56633089508796 Eh         -131065.43310 eV
Two Electron Energy:       2098.96724605447071 Eh           57115.80248 eV

Virial components:
Potential Energy   :      -1837.11998179322427 Eh          -49990.57618 eV
Kinetic Energy     :        917.55139381859362 Eh           24967.84277 eV
Virial Ratio       :          2.00219845359031

DFT components:
N(Alpha)           :       79.000008548345 electrons
N(Beta)            :       79.000008548345 electrons
N(Total)           :      158.000017096689 electrons
E(X)               :      -40.064159535693 Eh       
E(C)               :       -2.354240025865 Eh       
E(XC)              :      -42.418399561558 Eh       

---------------
SCF CONVERGENCE
---------------

  Last Energy change         ...   -8.0612e-08  Tolerance :   1.0000e-06
  Last MAX-Density change    ...    1.6819e-04  Tolerance :   1.0000e-05
  Last RMS-Density change    ...    1.1742e-06  Tolerance :   1.0000e-06
  Last DIIS Error            ...    1.2407e-03  Tolerance :   1.0000e-06
  Last Orbital Gradient      ...    3.3837e-05  Tolerance :   5.0000e-05
  Last Orbital Rotation      ...    8.3086e-05  Tolerance :   5.0000e-05


----------------
ORBITAL ENERGIES
----------------

  NO   OCC          E(Eh)            E(eV) 
   0   2.0000     -10.837023      -294.8904 
   1   2.0000     -10.836342      -294.8718 
   2   2.0000     -10.835722      -294.8550 
   3   2.0000     -10.835588      -294.8513 
   4   2.0000     -10.833274      -294.7884 
   5   2.0000     -10.832534      -294.7682 
   6   2.0000     -10.831106      -294.7294 
   7   2.0000     -10.831058      -294.7281 
   8   2.0000     -10.830281      -294.7069 
   9   2.0000     -10.829429      -294.6837 
  10   2.0000     -10.823447      -294.5210 
  11   2.0000     -10.823286      -294.5166 
  12   2.0000     -10.823266      -294.5160 
  13   2.0000     -10.822713      -294.5010 
  14   2.0000     -10.822707      -294.5008 
  15   2.0000     -10.822183      -294.4866 
  16   2.0000     -10.822084      -294.4839 
  17   2.0000     -10.822083      -294.4839 
  18   2.0000     -10.821988      -294.4813 
  19   2.0000     -10.821454      -294.4667 
  20   2.0000     -10.821162      -294.4588 
  21   2.0000     -10.821162      -294.4588 
  22   2.0000     -10.820496      -294.4407 
  23   2.0000     -10.820495      -294.4406 
  24   2.0000      -1.096659       -29.8416 
  25   2.0000      -1.070826       -29.1387 
  26   2.0000      -1.045217       -28.4418 
  27   2.0000      -1.028118       -27.9765 
  28   2.0000      -0.988130       -26.8884 
  29   2.0000      -0.966557       -26.3014 
  30   2.0000      -0.966173       -26.2909 
  31   2.0000      -0.937706       -25.5163 
  32   2.0000      -0.916066       -24.9274 
  33   2.0000      -0.905845       -24.6493 
  34   2.0000      -0.878312       -23.9001 
  35   2.0000      -0.873902       -23.7801 
  36   2.0000      -0.801317       -21.8049 
  37   2.0000      -0.777608       -21.1598 
  38   2.0000      -0.777334       -21.1523 
  39   2.0000      -0.772495       -21.0207 
  40   2.0000      -0.743742       -20.2383 
  41   2.0000      -0.725424       -19.7398 
  42   2.0000      -0.704446       -19.1689 
  43   2.0000      -0.671883       -18.2829 
  44   2.0000      -0.660046       -17.9608 
  45   2.0000      -0.637542       -17.3484 
  46   2.0000      -0.621349       -16.9078 
  47   2.0000      -0.618128       -16.8201 
  48   2.0000      -0.608135       -16.5482 
  49   2.0000      -0.591244       -16.0886 
  50   2.0000      -0.571965       -15.5640 
  51   2.0000      -0.563312       -15.3285 
  52   2.0000      -0.552857       -15.0440 
  53   2.0000      -0.545217       -14.8361 
  54   2.0000      -0.535298       -14.5662 
  55   2.0000      -0.527895       -14.3648 
  56   2.0000      -0.526273       -14.3206 
  57   2.0000      -0.522408       -14.2155 
  58   2.0000      -0.520767       -14.1708 
  59   2.0000      -0.511050       -13.9064 
  60   2.0000      -0.491922       -13.3859 
  61   2.0000      -0.488243       -13.2858 
  62   2.0000      -0.476921       -12.9777 
  63   2.0000      -0.469830       -12.7847 
  64   2.0000      -0.462638       -12.5890 
  65   2.0000      -0.457473       -12.4485 
  66   2.0000      -0.451460       -12.2848 
  67   2.0000      -0.435491       -11.8503 
  68   2.0000      -0.434711       -11.8291 
  69   2.0000      -0.412547       -11.2260 
  70   2.0000      -0.411258       -11.1909 
  71   2.0000      -0.385195       -10.4817 
  72   2.0000      -0.370508       -10.0820 
  73   2.0000      -0.358515        -9.7557 
  74   2.0000      -0.332962        -9.0603 
  75   2.0000      -0.302869        -8.2415 
  76   2.0000      -0.289671        -7.8824 
  77   2.0000      -0.248003        -6.7485 
  78   2.0000      -0.247588        -6.7372 
  79   0.0000       0.002988         0.0813 
  80   0.0000       0.009001         0.2449 
  81   0.0000       0.041455         1.1280 
  82   0.0000       0.053740         1.4623 
  83   0.0000       0.074153         2.0178 
  84   0.0000       0.075140         2.0447 
  85   0.0000       0.076955         2.0940 
  86   0.0000       0.080607         2.1934 
  87   0.0000       0.091555         2.4913 
  88   0.0000       0.091777         2.4974 
  89   0.0000       0.106669         2.9026 
*Only the first 10 virtual orbitals were printed.
-------
TIMINGS
-------

Total SCF time: 0 days 0 hours 9 min 43 sec 

Total time                  ....     583.395 sec
Sum of individual times     ....     583.308 sec  (100.0%)

SCF preparation             ....      15.473 sec  (  2.7%)
Fock matrix formation       ....     545.755 sec  ( 93.5%)
  Startup                   ....       1.427 sec  (  0.3% of F)
  Coulomb+Exchange Fock     ....     522.873 sec  ( 95.8% of F)
  XC integration            ....      17.807 sec  (  3.3% of F)
    XC Preparation          ....       0.000 sec  (  0.0% of XC)
    Basis function eval.    ....       0.952 sec  (  5.3% of XC)
    Density eval.           ....       1.900 sec  ( 10.7% of XC)
    XC-Functional eval.     ....       0.029 sec  (  0.2% of XC)
    XC-Potential eval.      ....       2.241 sec  ( 12.6% of XC)
Diagonalization             ....       0.000 sec  (  0.0%)
Density matrix formation    ....       3.305 sec  (  0.6%)
Total Energy calculation    ....       1.655 sec  (  0.3%)
Population analysis         ....       0.000 sec  (  0.0%)
Orbital Transformation      ....       2.274 sec  (  0.4%)
Orbital Orthonormalization  ....       0.000 sec  (  0.0%)
DIIS solution               ....      10.232 sec  (  1.8%)
SOSCF solution              ....       4.508 sec  (  0.8%)
Finished LeanSCF after 583.9 sec

Maximum memory used throughout the entire LEANSCF-calculation: 238.5 MB


           ************************************************************
           *        Program running with 104 parallel MPI-processes   *
           *              working on a common directory               *
           ************************************************************

------------------------------------------------------------------------------
                                ORCA  MP2 
------------------------------------------------------------------------------


----------
MP2 ENERGY (disk based algorithm)
----------

Dimension of the basis                      ... 1788
Memory devoted to MP2                       ... 4096 MB   
Data format for buffers                     ... DOUBLE
Compression type for matrix containers      ... UNCOMPRESSED
Scaling for aa/bb pairs                     ...   5.710e-02
Scaling for ab pairs                        ...   5.979e-01
Overall scaling of the MP2 energy           ...   1.000e+00

-------------------------
SHARK HALF TRANSFORMATION (Exchange order)
-------------------------

Number of basis functions                   ...   1788
Number of operators                         ...      1
   Operator  0:    0-  78 (p-index in (p*|q*))
   Operator  0:    0-  78 (q-index in (p*|q*)
Integral generator used                     ... SHARK
Contraction scheme used                     ... SEGMENTED CONTRACTION
MaxCore in resort                           ...   4096 MB

Half transformed integrals for op=   0      ... compas3x_hc_c24h14_0pent_4_qz_nori.SHARK_MNPQ0.tmp
Resorted half transformed integrals         ... compas3x_hc_c24h14_0pent_4_qz_nori.KAO_aa.tmp


ORCA finished by error termination in MP2
Calling Command: mpirun -np 104  /apps/orca/6.0.1/orca_mp2_mpi compas3x_hc_c24h14_0pent_4_qz_nori.mp2inp.tmp compas3x_hc_c24h14_0pent_4_qz_nori 
[file orca_tools/qcmsg.cpp, line 394]: 
  .... aborting the run

