
                                 *****************
                                 * O   R   C   A *
                                 *****************

                                            #,                                       
                                            ###                                      
                                            ####                                     
                                            #####                                    
                                            ######                                   
                                           ########,                                 
                                     ,,################,,,,,                         
                               ,,#################################,,                 
                          ,,##########################################,,             
                       ,#########################################, ''#####,          
                    ,#############################################,,   '####,        
                  ,##################################################,,,,####,       
                ,###########''''           ''''###############################       
              ,#####''   ,,,,##########,,,,          '''####'''          '####       
            ,##' ,,,,###########################,,,                        '##       
           ' ,,###''''                  '''############,,,                           
         ,,##''                                '''############,,,,        ,,,,,,###''
      ,#''                                            '''#######################'''  
     '                                                          ''''####''''         
             ,#######,   #######,   ,#######,      ##                                
            ,#'     '#,  ##    ##  ,#'     '#,    #''#        ,####,   ,####,        
            ##       ##  ##   ,#'  ##            #'  '#       #'       #'  '#        
            ##       ##  #######   ##           ,######,      #####,   #    #        
            '#,     ,#'  ##    ##  '#,     ,#' ,#      #,     #,   #   #,  ,#        
             '#######'   ##     ##  '#######'  #'      '#     '####' # '####'        



                #########################################################
                #                        -***-                          #
                #          Department of theory and spectroscopy        #
                #                                                       #
                #                      Frank Neese                      #
                #                                                       #
                #     Directorship, Architecture, Infrastructure        #
                #                    SHARK, DRIVERS                     #
                #        Core code/Algorithms in most modules           #
                #                                                       #
                #        Max Planck Institute fuer Kohlenforschung      #
                #                Kaiser Wilhelm Platz 1                 #
                #                 D-45470 Muelheim/Ruhr                 #
                #                      Germany                          #
                #                                                       #
                #                  All rights reserved                  #
                #                        -***-                          #
                #########################################################


                         Program Version 6.0.1  -  RELEASE   -


 With contributions from (in alphabetic order):
[Max-Planck-Institut fuer Kohlenforschung]                               
  Daniel Aravena         : Magnetic Suceptibility                        
  Michael Atanasov       : Ab Initio Ligand Field Theory (pilot matlab implementation)
  Alexander A. Auer      : GIAO ZORA, VPT2 properties, NMR spectrum      
  Ute Becker             : All parallelization in ORCA, NUMFREQ, NUMCALC 
  Giovanni Bistoni       : ED, misc. LED, open-shell LED, HFLD           
  Martin Brehm           : Molecular dynamics                            
  Dmytro Bykov           : pre 5.0 version of the SCF Hessian            
  Marcos Casanova-Páez   : Triplet and SCS-CIS(D). UHF-(DLPNO)-IP/EA/STEOM-CCSD. UHF-CVS-IP/STEOM-CCSD   
  Vijay G. Chilkuri      : MRCI spin determinant printing, contributions to CSF-ICE 
  Pauline Colinet        : FMM embedding                                 
  Dipayan Datta          : RHF DLPNO-CCSD density                        
  Achintya Kumar Dutta   : EOM-CC, STEOM-CC                              
  Nicolas Foglia         : Exact transition moments, OPA infrastructure, MCD improvements    
  Dmitry Ganyushin       : Spin-Orbit,Spin-Spin,Magnetic field MRCI      
  Miquel Garcia-Rates    : C-PCM and meta-GGA Hessian, CCSD/C-PCM, Gaussian charge scheme 
  Tiago L. C. Gouveia    : GS-ROHF, GS-ROCIS                             
  Yang Guo               : DLPNO-NEVPT2, F12-NEVPT2, CIM, IAO-localization        
  Andreas Hansen         : Spin unrestricted coupled pair/coupled cluster methods 
  Ingolf Harden          : AUTO-CI MPn and infrastructure                
  Benjamin Helmich-Paris : MC-RPA, TRAH-(SCF,CASSCF), AVAS, COSX integrals, SCF dyn. polar. 
  Lee Huntington         : MR-EOM, pCC                                   
  Robert Izsak           : Overlap fitted RIJCOSX, COSX-SCS-MP3, EOM     
  Riya Kayal             : Wick's Theorem for AUTO-CI, AUTO-CI UHF-CCSDT 
  Emily Kempfer          : AUTO-CI, RHF CISDT and CCSDT                  
  Christian Kollmar      : KDIIS, OOCD, Brueckner-CCSD(T), CCSD density, CASPT2, CASPT2-K, improved NEVPT2 
  Axel Koslowski         : Symmetry handling                             
  Simone Kossmann        : meta-GGA functionals, TD-DFT gradient, OOMP2, (MP2 Hessian; deprecated post 5.0) 
  Lucas Lang             : DCDCAS                                        
  Marvin Lechner         : AUTO-CI (C++ implementation), FIC-MRCC        
  Spencer Leger          : CASSCF response                               
  Dagmar Lenk            : GEPOL surface, SMD, ORCA-2-JSON               
  Dimitrios Liakos       : Extrapolation schemes; Compound Job, initial MDCI parallelization 
  Dimitrios Manganas     : Further ROCIS development; embedding schemes. LFT, Crystal Embedding 
  Dimitrios Pantazis     : SARC Basis sets                               
  Anastasios Papadopoulos: AUTO-CI, single reference methods and gradients 
  Taras Petrenko         : pre 6.0 DFT Hessian and TD-DFT gradient, (ASA, deprecated), ECA, 1-Electron XAS/XES, NRVS 
  Peter Pinski           : DLPNO-MP2, DLPNO-MP2 Gradient                 
  Christoph Reimann      : Effective Core Potentials                     
  Marius Retegan         : Local ZFS, SOC                                
  Christoph Riplinger    : Optimizer, TS searches, QM/MM, DLPNO-CCSD(T), (RO)-DLPNO pert. Triples 
  Michael Roemelt        : Original ROCIS implementation                 
  Masaaki Saitow         : Open-shell DLPNO-CCSD energy and density      
  Barbara Sandhoefer     : DKH picture change effects                    
  Kantharuban Sivalingam : CASSCF convergence/infrastructure, NEVPT2 and variants, FIC-MRCI 
  Bernardo de Souza      : ESD, SOC TD-DFT                               
  Georgi L. Stoychev     : AutoAux, RI-MP2 NMR, DLPNO-MP2 response, X2C  
  Van Anh Tran           : RI-MP2 g-tensors                              
  Willem Van den Heuvel  : Paramagnetic NMR                              
  Zikuan Wang            : NOTCH, Electric field optimization            
  Frank Wennmohs         : Technical directorship and infrastructure     
  Hang Xu                : AUTO-CI-Response properties                   
                                                                         
[FACCTs GmbH]                                                            
  Markus Bursch, Miquel Garcia-Rates, Christoph Riplinger, Bernardo de Souza, Georgi L. Stoychev 
                                                                 
  APM, Basis sets (HGBS, AHGBS, def-TZVP (Ac-Lr), def2-XVPD (La-Lu)), CI-OPT, improved COSX, DLPNO-Multilevel,           
  DOCKER, DRACO, updates on ESD, GOAT, IRC, LR-CPCM, MBIS, meta-GGA TD-DFT gradient, ML-optimized integration grids, 
  MM, NACMEs, nearIR, NEB, NEB-TS, NL-DFT gradient (VV10), 2- and 3-layer-ONIOM, interface openCOSMO-RS, QMMM,   
  Crystal-QMMM, SF, symmetry and pop. for TD-DFT, r2SCAN hybrids, SOLVATOR                                   
                                                                         
[Other institutions]                                                     
  V. Asgeirsson          : NEB                                           
  Christoph Bannwarth    : sTDA-DFT, sTD-DFT, PBEh-3c, B97-3c, D3        
  Sebastian Ehlert       : rSCAN, r2SCAN, r2SCAN-3c, D4, dhf basis sets  
  Marvin Friede          : D4 for Fr, Ra, Ac-Lr                          
  Lars Goerigk           : TD-DFT with DH, B97 family of functionals     
  Stefan Grimme          : VdW corrections, initial TS optimization, DFT functionals, gCP, sTDA/sTD-DF 
  Waldemar Hujo          : DFT-NL                                        
  H. Jonsson             : NEB                                           
  Holger Kruse           : gCP                                           
  Marcel Mueller         : wB97X-3c, vDZP basis set                      
  Hagen Neugebauer       : wr2SCAN                                       
  Tobias Risthaus        : range-separated hybrid DFT                    
  Lukas Wittmann         : regularized MP2, r2SCAN double-hybrids, wr2SCAN        
                                                                         
We gratefully acknowledge several colleagues who have allowed us to      
interface, adapt or use parts of their codes:                            
  Ed Valeev, F. Pavosevic, A. Kumar             : LibInt (2-el integral package), F12 methods 
  Garnet Chan, S. Sharma, J. Yang, R. Olivares  : DMRG                   
  Ulf Ekstrom                                   : XCFun DFT Library      
  Mihaly Kallay                                 : mrcc  (arbitrary order and MRCC methods)
  Frank Weinhold                                : gennbo (NPA and NBO analysis)           
  Simon Mueller                                 : openCOSMO-RS                            
  Christopher J. Cramer and Donald G. Truhlar   : smd solvation model                     
  S Lehtola, MJT Oliveira, MAL Marques          : LibXC Library                           
  Liviu Ungur et al                             : ANISO software                          


 Your calculation uses the libint2 library for the computation of 2-el integrals
 For citations please refer to: http://libint.valeyev.net

 Your ORCA version has been built with support for libXC version: 6.2.2
 For citations please refer to: https://libxc.gitlab.io

 This ORCA versions uses:
   CBLAS   interface :  Fast vector & matrix operations
   LAPACKE interface :  Fast linear algebra routines
   SCALAPACK package :  Parallel linear algebra routines
   Shared memory     :  Shared parallel matrices
   BLAS/LAPACK       :  OpenBLAS 0.3.27  USE64BITINT DYNAMIC_ARCH NO_AFFINITY SapphireRapids SINGLE_THREADED
        Core in use  :  SapphireRapids
   Copyright (c) 2011-2014, The OpenBLAS Project


Warning! Weird basis set assignment to AuxJK basis!


***************************************
The coordinates will be read from file: /g/data/kx58/rs2200/dhdft/inputs/compas3x-xyzs/hc_c36h16_0pent_3.xyz
***************************************


Your calculation utilizes the atom-pairwise dispersion correction
based on EEQ partial charges (D4)


================================================================================

----- Orbital basis set information -----
Your calculation utilizes the basis: def2-QZVPP
   F. Weigend and R. Ahlrichs, Phys. Chem. Chem. Phys. 7, 3297 (2005).

----- AuxC basis set information -----
Your calculation utilizes the auxiliary basis: def2-QZVPP/C
  H-La, Hf-Rn : A. Hellweg, C. Hattig, S. Hofener and W. Klopper, Theor. Chem. Acc. 117, 587 (2007).
        Ce-Lu : J. Chmela and M. E. Harding, Mol. Phys. (2018).

----- AuxJK basis set information -----
Your calculation utilizes the auxiliary basis: def2-QZVPP/C
  H-La, Hf-Rn : A. Hellweg, C. Hattig, S. Hofener and W. Klopper, Theor. Chem. Acc. 117, 587 (2007).
        Ce-Lu : J. Chmela and M. E. Harding, Mol. Phys. (2018).

================================================================================
                                        WARNINGS
                       Please study these warnings very carefully!
================================================================================


WARNING: No MP2 level density has been requested!
         To calculate MP2 level properties use
         %mp2 Density relaxed end
         or
         %mp2 Density unrelaxed end
         Otherwise for double-hybrid DFT only the energy is correct!

================================================================================
                                       INPUT FILE
================================================================================
NAME = compas3x_hc_c36h16_0pent_3_qz_riri.inp
|  1> ! RKS revDSD-PBEP86-D4/2021 defgrid3  RIJK NOPOP NoFrozencore NoUseSym
|  2> 
|  3> %basis
|  4> Basis "def2-QZVPP"
|  5> AuxJK "def2-QZVPP/C"
|  6> AuxC "def2-QZVPP/C"
|  7> end
|  8> 
|  9> %method
| 10> ScalHFX 0.69
| 11> ScalDFX 0.31
| 12> ScalDFC 0.4038
| 13> ScalLDAC 0.4038
| 14> 
| 15> D4S6 0.4612
| 16> D4S8 0.0
| 17> D4A1 0.44
| 18> D4A2 3.60
| 19> end
| 20> 
| 21> %mp2
| 22> PS 0.5979
| 23> PT 0.0571
| 24> 
| 25> end
| 26> 
| 27> %pal
| 28> nprocs 104
| 29> end
| 30> 
| 31> *XYZFILE 0 1 /g/data/kx58/rs2200/dhdft/inputs/compas3x-xyzs/hc_c36h16_0pent_3.xyz
| 32> 
| 33>                          ****END OF INPUT****
================================================================================

                       ****************************
                       * Single Point Calculation *
                       ****************************

---------------------------------
CARTESIAN COORDINATES (ANGSTROEM)
---------------------------------
  C      1.177373    0.779190   -0.001379
  C      1.281117   -0.637302    0.000408
  C      0.084611   -1.414291    0.002209
  C     -1.177444   -0.779227    0.003661
  C     -1.281186    0.637266    0.002717
  C     -0.084682    1.414253   -0.000560
  C      2.354904    1.570807   -0.004238
  C      3.608335    0.917000   -0.004096
  C      3.694919   -0.440107   -0.001848
  C      2.542230   -1.260685    0.000056
  C      2.628545   -2.699467    0.001192
  C      1.432120   -3.461759    0.001666
  C      0.167136   -2.820741    0.002353
  C     -1.024720   -3.599760    0.003221
  C     -2.254215   -2.964221    0.005163
  C     -2.354978   -1.570846    0.005854
  C     -0.167212    2.820700   -0.003153
  C      1.024639    3.599716   -0.007131
  C      2.254136    2.964177   -0.007351
  C     -3.608405   -0.917043    0.008571
  C     -3.694981    0.440065    0.008216
  C     -2.542297    1.260646    0.004638
  C     -2.628617    2.699425    0.002471
  C     -1.432199    3.461719   -0.001965
  C     -1.495785    4.879202   -0.005234
  C     -0.282767    5.632991   -0.010017
  C      0.920933    5.023552   -0.010834
  C      1.495698   -4.879244    0.001601
  C      0.282670   -5.633030    0.001486
  C     -0.921023   -5.023596    0.002259
  C     -3.847038    3.386746    0.004012
  C     -3.898188    4.766682    0.000978
  C     -2.735604    5.513126   -0.003779
  C      3.846967   -3.386792    0.001487
  C      3.898115   -4.766740    0.001786
  C      2.735530   -5.513164    0.001619
  H      4.504041    1.521791   -0.005785
  H      4.673036   -0.893209   -0.001696
  H     -3.159529   -3.555554    0.006158
  H      3.159447    3.555507   -0.010104
  H     -4.504116   -1.521840    0.011027
  H     -4.673092    0.893161    0.010626
  H     -0.359023    6.711215   -0.012859
  H      1.836294    5.598250   -0.014341
  H      0.358919   -6.711257    0.000783
  H     -1.836390   -5.598298    0.002189
  H     -4.778872    2.844809    0.007554
  H     -4.857285    5.264258    0.002184
  H     -2.779051    6.592735   -0.006327
  H      4.778803   -2.844835    0.001531
  H      4.857192   -5.264288    0.002254
  H      2.778988   -6.592694    0.001769

----------------------------
CARTESIAN COORDINATES (A.U.)
----------------------------
  NO LB      ZA    FRAG     MASS         X           Y           Z
   0 C     6.0000    0    12.011    2.224912    1.472457   -0.002606
   1 C     6.0000    0    12.011    2.420960   -1.204326    0.000770
   2 C     6.0000    0    12.011    0.159891   -2.672622    0.004174
   3 C     6.0000    0    12.011   -2.225046   -1.472526    0.006919
   4 C     6.0000    0    12.011   -2.421091    1.204258    0.005134
   5 C     6.0000    0    12.011   -0.160025    2.672551   -0.001058
   6 C     6.0000    0    12.011    4.450124    2.968395   -0.008009
   7 C     6.0000    0    12.011    6.818764    1.732879   -0.007741
   8 C     6.0000    0    12.011    6.982385   -0.831682   -0.003492
   9 C     6.0000    0    12.011    4.804119   -2.382348    0.000105
  10 C     6.0000    0    12.011    4.967230   -5.101253    0.002252
  11 C     6.0000    0    12.011    2.706314   -6.541776    0.003148
  12 C     6.0000    0    12.011    0.315841   -5.330428    0.004447
  13 C     6.0000    0    12.011   -1.936440   -6.802561    0.006086
  14 C     6.0000    0    12.011   -4.259849   -5.601566    0.009757
  15 C     6.0000    0    12.011   -4.450263   -2.968469    0.011062
  16 C     6.0000    0    12.011   -0.315985    5.330351   -0.005959
  17 C     6.0000    0    12.011    1.936287    6.802478   -0.013476
  18 C     6.0000    0    12.011    4.259700    5.601482   -0.013891
  19 C     6.0000    0    12.011   -6.818897   -1.732960    0.016197
  20 C     6.0000    0    12.011   -6.982503    0.831602    0.015527
  21 C     6.0000    0    12.011   -4.804245    2.382276    0.008765
  22 C     6.0000    0    12.011   -4.967366    5.101174    0.004669
  23 C     6.0000    0    12.011   -2.706465    6.541700   -0.003713
  24 C     6.0000    0    12.011   -2.826624    9.220356   -0.009891
  25 C     6.0000    0    12.011   -0.534352   10.644811   -0.018930
  26 C     6.0000    0    12.011    1.740311    9.493137   -0.020473
  27 C     6.0000    0    12.011    2.826459   -9.220434    0.003026
  28 C     6.0000    0    12.011    0.534170  -10.644884    0.002807
  29 C     6.0000    0    12.011   -1.740481   -9.493220    0.004270
  30 C     6.0000    0    12.011   -7.269848    6.400022    0.007581
  31 C     6.0000    0    12.011   -7.366507    9.007724    0.001848
  32 C     6.0000    0    12.011   -5.169543   10.418297   -0.007142
  33 C     6.0000    0    12.011    7.269715   -6.400109    0.002810
  34 C     6.0000    0    12.011    7.366369   -9.007833    0.003375
  35 C     6.0000    0    12.011    5.169402  -10.418370    0.003059
  36 H     1.0000    0     1.008    8.511404    2.875768   -0.010933
  37 H     1.0000    0     1.008    8.830758   -1.687921   -0.003205
  38 H     1.0000    0     1.008   -5.970645   -6.719023    0.011637
  39 H     1.0000    0     1.008    5.970489    6.718934   -0.019093
  40 H     1.0000    0     1.008   -8.511546   -2.875860    0.020837
  41 H     1.0000    0     1.008   -8.830863    1.687829    0.020080
  42 H     1.0000    0     1.008   -0.678455   12.682358   -0.024299
  43 H     1.0000    0     1.008    3.470093   10.579159   -0.027100
  44 H     1.0000    0     1.008    0.678259  -12.682438    0.001480
  45 H     1.0000    0     1.008   -3.470273  -10.579250    0.004136
  46 H     1.0000    0     1.008   -9.030759    5.375911    0.014274
  47 H     1.0000    0     1.008   -9.178938    9.948007    0.004127
  48 H     1.0000    0     1.008   -5.251646   12.458464   -0.011957
  49 H     1.0000    0     1.008    9.030629   -5.375960    0.002893
  50 H     1.0000    0     1.008    9.178762   -9.948063    0.004259
  51 H     1.0000    0     1.008    5.251526  -12.458386    0.003344

--------------------------------
INTERNAL COORDINATES (ANGSTROEM)
--------------------------------
 C      0   0   0     0.000000000000     0.00000000     0.00000000
 C      1   0   0     1.420287500152     0.00000000     0.00000000
 C      2   1   0     1.426654250225   118.81011654     0.00000000
 C      3   2   1     1.412830001648   120.28965288   359.93155811
 C      4   3   2     1.420287222385   120.90018970     0.03029748
 C      1   2   3     1.412829331119   120.90020852     0.03895058
 C      1   2   3     1.418888457191   119.72287654   180.04887536
 C      7   1   2     1.413701253082   118.54108341   359.94774653
 C      8   7   1     1.359868147958   121.19768612     0.02727002
 C      2   1   3     1.406773799286   120.49253291   179.98384053
 C     10   2   1     1.441369710528   119.73683061   180.03187330
 C     11  10   2     1.418633912488   119.06975947     0.04552516
 C      3   2   1     1.408869373984   119.64085600   179.92314160
 C     13   3   2     1.423865221421   119.81133882   180.04303059
 C     14  13   3     1.384041900363   119.49568943   359.94055803
 C     15  14  13     1.397013909290   121.47112678     0.00000000
 C      6   1   2     1.408868902774   120.06956236   180.03722976
 C     17   6   1     1.423864987463   119.81126406     0.02460211
 C     18  17   6     1.384042231492   119.49561092   359.94970236
 C     16  15  14     1.413699249286   121.68329681   180.03497268
 C     20  16  15     1.359866649469   121.19724304   180.04946784
 C      5   4   3     1.406771773991   120.49237021   180.02178319
 C     22   5   4     1.441367483719   119.73681311   180.05362974
 C     17   6   1     1.418132314335   120.23121560   180.01755152
 C     24  17   6     1.418912666063   119.44133719   180.02863543
 C     25  24  17     1.428157322215   119.28928592     0.00000000
 C     26  25  24     1.349188737921   121.28911958   359.96768103
 C     12  11  10     1.418909890042   119.93474367   179.94493314
 C     28  12  11     1.428155858583   119.28905281   180.02744388
 C     29  28  12     1.349180607821   121.28951547   359.95910076
 C     23  22   5     1.398915064461   122.86085517   179.99147682
 C     31  23  22     1.380887473075   121.55019675   180.04312807
 C     32  31  23     1.381593158204   120.58016539     0.00000000
 C     11  10   2     1.398916822239   122.86093167   180.02751840
 C     34  11  10     1.380896046872   121.55047905   180.03882643
 C     35  34  11     1.381575888605   120.57932023     0.00000000
 H      8   7   1     1.080770245791   118.42513616   180.02962045
 H      9   8   7     1.077967915179   118.50595558   180.00836281
 H     15  14  13     1.081327677481   119.51337665   180.02043366
 H     19  18  17     1.081326277958   119.51330058   180.01629431
 H     20  16  15     1.080779507383   118.42526881     0.05374471
 H     21  20  16     1.077961710126   118.50537132   180.01607449
 H     26  25  24     1.080920621152   117.81236508   179.97466740
 H     27  26  25     1.080821929821   121.02449583   180.00738077
 H     29  28  12     1.080919697523   117.81215432   179.96074689
 H     30  29  28     1.080823633177   121.02453333   180.00125350
 H     31  23  22     1.077971083170   120.39090263     0.03787007
 H     32  31  23     1.080486635854   119.54264045   179.99348227
 H     33  32  31     1.080486631563   120.39846548   179.98873412
 H     34  11  10     1.077977308006   120.38990471     0.04158050
 H     35  34  11     1.080455105980   119.54199511   180.01491163
 H     36  35  34     1.080404687208   120.39673825   179.99482430

---------------------------
INTERNAL COORDINATES (A.U.)
---------------------------
 C      0   0   0     0.000000000000     0.00000000     0.00000000
 C      1   0   0     2.683954406720     0.00000000     0.00000000
 C      2   1   0     2.695985820720   118.81011654     0.00000000
 C      3   2   1     2.669861776901   120.28965288   359.93155811
 C      4   3   2     2.683953881816   120.90018970     0.03029748
 C      1   2   3     2.669860509787   120.90020852     0.03895058
 C      1   2   3     2.681310598673   119.72287654   180.04887536
 C      7   1   2     2.671508203507   118.54108341   359.94774653
 C      8   7   1     2.569778377883   121.19768612     0.02727002
 C      2   1   3     2.658417213026   120.49253291   179.98384053
 C     10   2   1     2.723794010627   119.73683061   180.03187330
 C     11  10   2     2.680829578896   119.06975947     0.04552516
 C      3   2   1     2.662377275298   119.64085600   179.92314160
 C     13   3   2     2.690715320101   119.81133882   180.04303059
 C     14  13   3     2.615460149557   119.49568943   359.94055803
 C     15  14  13     2.639973693836   121.47112678     0.00000000
 C      6   1   2     2.662376384842   120.06956236   180.03722976
 C     17   6   1     2.690714877985   119.81126406     0.02460211
 C     18  17   6     2.615460775301   119.49561092   359.94970236
 C     16  15  14     2.671504416880   121.68329681   180.03497268
 C     20  16  15     2.569775546149   121.19724304   180.04946784
 C      5   4   3     2.658413385773   120.49237021   180.02178319
 C     22   5   4     2.723789802569   119.73681311   180.05362974
 C     17   6   1     2.679881695757   120.23121560   180.01755152
 C     24  17   6     2.681356346812   119.44133719   180.02863543
 C     25  24  17     2.698826215141   119.28928592     0.00000000
 C     26  25  24     2.549597217642   121.28911958   359.96768103
 C     12  11  10     2.681351100891   119.93474367   179.94493314
 C     28  12  11     2.698823449277   119.28905281   180.02744388
 C     29  28  12     2.549581853979   121.28951547   359.95910076
 C     23  22   5     2.643566356447   122.86085517   179.99147682
 C     31  23  22     2.609499145875   121.55019675   180.04312807
 C     32  31  23     2.610832697504   120.58016539     0.00000000
 C     11  10   2     2.643569678166   122.86093167   180.02751840
 C     34  11  10     2.609515348002   121.55047905   180.03882643
 C     35  34  11     2.610800062692   120.57932023     0.00000000
 H      8   7   1     2.042359778235   118.42513616   180.02962045
 H      9   8   7     2.037064140843   118.50595558   180.00836281
 H     15  14  13     2.043413171468   119.51337665   180.02043366
 H     19  18  17     2.043410526754   119.51330058   180.01629431
 H     20  16  15     2.042377280108   118.42526881     0.05374471
 H     21  20  16     2.037052414991   118.50537132   180.01607449
 H     26  25  24     2.042643946485   117.81236508   179.97466740
 H     27  26  25     2.042457446897   121.02449583   180.00738077
 H     29  28  12     2.042642201079   117.81215432   179.96074689
 H     30  29  28     2.042460665774   121.02453333   180.00125350
 H     31  23  22     2.037070127479   120.39090263     0.03787007
 H     32  31  23     2.041823833126   119.54264045   179.99348227
 H     33  32  31     2.041823825016   120.39846548   179.98873412
 H     34  11  10     2.037081890714   120.38990471     0.04158050
 H     35  34  11     2.041764250298   119.54199511   180.01491163
 H     36  35  34     2.041668972627   120.39673825   179.99482430

---------------------
BASIS SET INFORMATION
---------------------
There are 2 groups of distinct atoms

 Group   1 Type C   : 15s8p3d2f1g contracted to 7s4p3d2f1g pattern {8211111/5111/111/11/1}
 Group   2 Type H   : 7s3p2d1f contracted to 4s3p2d1f pattern {4111/111/11/1}

Atom   0C    basis set group =>   1
Atom   1C    basis set group =>   1
Atom   2C    basis set group =>   1
Atom   3C    basis set group =>   1
Atom   4C    basis set group =>   1
Atom   5C    basis set group =>   1
Atom   6C    basis set group =>   1
Atom   7C    basis set group =>   1
Atom   8C    basis set group =>   1
Atom   9C    basis set group =>   1
Atom  10C    basis set group =>   1
Atom  11C    basis set group =>   1
Atom  12C    basis set group =>   1
Atom  13C    basis set group =>   1
Atom  14C    basis set group =>   1
Atom  15C    basis set group =>   1
Atom  16C    basis set group =>   1
Atom  17C    basis set group =>   1
Atom  18C    basis set group =>   1
Atom  19C    basis set group =>   1
Atom  20C    basis set group =>   1
Atom  21C    basis set group =>   1
Atom  22C    basis set group =>   1
Atom  23C    basis set group =>   1
Atom  24C    basis set group =>   1
Atom  25C    basis set group =>   1
Atom  26C    basis set group =>   1
Atom  27C    basis set group =>   1
Atom  28C    basis set group =>   1
Atom  29C    basis set group =>   1
Atom  30C    basis set group =>   1
Atom  31C    basis set group =>   1
Atom  32C    basis set group =>   1
Atom  33C    basis set group =>   1
Atom  34C    basis set group =>   1
Atom  35C    basis set group =>   1
Atom  36H    basis set group =>   2
Atom  37H    basis set group =>   2
Atom  38H    basis set group =>   2
Atom  39H    basis set group =>   2
Atom  40H    basis set group =>   2
Atom  41H    basis set group =>   2
Atom  42H    basis set group =>   2
Atom  43H    basis set group =>   2
Atom  44H    basis set group =>   2
Atom  45H    basis set group =>   2
Atom  46H    basis set group =>   2
Atom  47H    basis set group =>   2
Atom  48H    basis set group =>   2
Atom  49H    basis set group =>   2
Atom  50H    basis set group =>   2
Atom  51H    basis set group =>   2
---------------------------------
AUXILIARY/C BASIS SET INFORMATION
---------------------------------
There are 2 groups of distinct atoms

 Group   1 Type C   : 9s8p7d5f3g1h contracted to 9s8p7d5f3g1h pattern {111111111/11111111/1111111/11111/111/1}
 Group   2 Type H   : 6s4p3d2f1g contracted to 6s4p3d2f1g pattern {111111/1111/111/11/1}

Atom   0C    basis set group =>   1
Atom   1C    basis set group =>   1
Atom   2C    basis set group =>   1
Atom   3C    basis set group =>   1
Atom   4C    basis set group =>   1
Atom   5C    basis set group =>   1
Atom   6C    basis set group =>   1
Atom   7C    basis set group =>   1
Atom   8C    basis set group =>   1
Atom   9C    basis set group =>   1
Atom  10C    basis set group =>   1
Atom  11C    basis set group =>   1
Atom  12C    basis set group =>   1
Atom  13C    basis set group =>   1
Atom  14C    basis set group =>   1
Atom  15C    basis set group =>   1
Atom  16C    basis set group =>   1
Atom  17C    basis set group =>   1
Atom  18C    basis set group =>   1
Atom  19C    basis set group =>   1
Atom  20C    basis set group =>   1
Atom  21C    basis set group =>   1
Atom  22C    basis set group =>   1
Atom  23C    basis set group =>   1
Atom  24C    basis set group =>   1
Atom  25C    basis set group =>   1
Atom  26C    basis set group =>   1
Atom  27C    basis set group =>   1
Atom  28C    basis set group =>   1
Atom  29C    basis set group =>   1
Atom  30C    basis set group =>   1
Atom  31C    basis set group =>   1
Atom  32C    basis set group =>   1
Atom  33C    basis set group =>   1
Atom  34C    basis set group =>   1
Atom  35C    basis set group =>   1
Atom  36H    basis set group =>   2
Atom  37H    basis set group =>   2
Atom  38H    basis set group =>   2
Atom  39H    basis set group =>   2
Atom  40H    basis set group =>   2
Atom  41H    basis set group =>   2
Atom  42H    basis set group =>   2
Atom  43H    basis set group =>   2
Atom  44H    basis set group =>   2
Atom  45H    basis set group =>   2
Atom  46H    basis set group =>   2
Atom  47H    basis set group =>   2
Atom  48H    basis set group =>   2
Atom  49H    basis set group =>   2
Atom  50H    basis set group =>   2
Atom  51H    basis set group =>   2
----------------------------------
AUXILIARY/JK BASIS SET INFORMATION
----------------------------------
There are 2 groups of distinct atoms

 Group   1 Type C   : 9s8p7d5f3g1h contracted to 9s8p7d5f3g1h pattern {111111111/11111111/1111111/11111/111/1}
 Group   2 Type H   : 6s4p3d2f1g contracted to 6s4p3d2f1g pattern {111111/1111/111/11/1}

Atom   0C    basis set group =>   1
Atom   1C    basis set group =>   1
Atom   2C    basis set group =>   1
Atom   3C    basis set group =>   1
Atom   4C    basis set group =>   1
Atom   5C    basis set group =>   1
Atom   6C    basis set group =>   1
Atom   7C    basis set group =>   1
Atom   8C    basis set group =>   1
Atom   9C    basis set group =>   1
Atom  10C    basis set group =>   1
Atom  11C    basis set group =>   1
Atom  12C    basis set group =>   1
Atom  13C    basis set group =>   1
Atom  14C    basis set group =>   1
Atom  15C    basis set group =>   1
Atom  16C    basis set group =>   1
Atom  17C    basis set group =>   1
Atom  18C    basis set group =>   1
Atom  19C    basis set group =>   1
Atom  20C    basis set group =>   1
Atom  21C    basis set group =>   1
Atom  22C    basis set group =>   1
Atom  23C    basis set group =>   1
Atom  24C    basis set group =>   1
Atom  25C    basis set group =>   1
Atom  26C    basis set group =>   1
Atom  27C    basis set group =>   1
Atom  28C    basis set group =>   1
Atom  29C    basis set group =>   1
Atom  30C    basis set group =>   1
Atom  31C    basis set group =>   1
Atom  32C    basis set group =>   1
Atom  33C    basis set group =>   1
Atom  34C    basis set group =>   1
Atom  35C    basis set group =>   1
Atom  36H    basis set group =>   2
Atom  37H    basis set group =>   2
Atom  38H    basis set group =>   2
Atom  39H    basis set group =>   2
Atom  40H    basis set group =>   2
Atom  41H    basis set group =>   2
Atom  42H    basis set group =>   2
Atom  43H    basis set group =>   2
Atom  44H    basis set group =>   2
Atom  45H    basis set group =>   2
Atom  46H    basis set group =>   2
Atom  47H    basis set group =>   2
Atom  48H    basis set group =>   2
Atom  49H    basis set group =>   2
Atom  50H    basis set group =>   2
Atom  51H    basis set group =>   2


           ************************************************************
           *        Program running with 104 parallel MPI-processes   *
           *              working on a common directory               *
           ************************************************************
------------------------------------------------------------------------------
                             ORCA STARTUP CALCULATIONS
                           -- RI-GTO INTEGRALS CHOSEN --
------------------------------------------------------------------------------
------------------------------------------------------------------------------
                   ___                                                        
                  /   \      - P O W E R E D   B Y -                         
                 /     \                                                     
                 |  |  |   _    _      __       _____    __    __             
                 |  |  |  | |  | |    /  \     |  _  \  |  |  /  |          
                  \  \/   | |  | |   /    \    | | | |  |  | /  /          
                 / \  \   | |__| |  /  /\  \   | |_| |  |  |/  /          
                |  |  |   |  __  | /  /__\  \  |    /   |      \           
                |  |  |   | |  | | |   __   |  |    \   |  |\   \          
                \     /   | |  | | |  |  |  |  | |\  \  |  | \   \       
                 \___/    |_|  |_| |__|  |__|  |_| \__\ |__|  \__/        
                                                                              
                      - O R C A' S   B I G   F R I E N D -                    
                                      &                                       
                       - I N T E G R A L  F E E D E R -                       
                                                                              
 v1 FN, 2020, v2 2021, v3 2022-2024                                           
------------------------------------------------------------------------------


----------------------
SHARK INTEGRAL PACKAGE
----------------------

Number of atoms                             ...     52
Number of basis functions                   ...   2532
Number of shells                            ...    772
Maximum angular momentum                    ...      4
Integral batch strategy                     ... SHARK/LIBINT Hybrid
RI-J (if used) integral strategy            ... SPLIT-RIJ (Revised 2003 algorithm where possible)
Printlevel                                  ...      1
Contraction scheme used                     ... SEGMENTED contraction
Prescreening option                         ... SCHWARTZ
   Thresh                                   ... 1.000e-10
   Tcut                                     ... 1.000e-11
   Tpresel                                  ... 1.000e-11 
Coulomb Range Separation                    ... NOT USED
Exchange Range Separation                   ... NOT USED
Multipole approximations                    ... NOT USED
Finite Nucleus Model                        ... NOT USED
CABS basis                                  ... NOT available
Auxiliary Coulomb fitting basis             ... NOT available
Auxiliary J/K fitting basis                 ... AVAILABLE
   # of basis functions in Aux-JK           ...   5972
   # of shells in Aux-JK                    ...   1444
   Maximum angular momentum in Aux-JK       ...      5
Auxiliary Correlation fitting basis         ... AVAILABLE
   # of basis functions in Aux-C            ...   5972
   # of shells in Aux-C                     ...   1444
   Maximum angular momentum in Aux-C        ...      5
Auxiliary 'external' fitting basis          ... NOT available

Checking pre-screening integrals            ... done (  0.0 sec) Dimension = 772
Check shell pair data                       ... done (  0.0 sec)
Shell pair information
Shell pair cut-off parameter TPreSel        ...   1.0e-11
Total number of shell pairs                 ...    298378
Shell pairs after pre-screening             ...    154071
Total number of primitive shell pairs       ...    785878
Primitive shell pairs kept                  ...    270536
          la=0 lb=0:  22694 shell pairs
          la=1 lb=0:  35214 shell pairs
          la=1 lb=1:  12493 shell pairs
          la=2 lb=0:  20504 shell pairs
          la=2 lb=1:  15948 shell pairs
          la=2 lb=2:   4958 shell pairs
          la=3 lb=0:  12296 shell pairs
          la=3 lb=1:   9608 shell pairs
          la=3 lb=2:   5632 shell pairs
          la=3 lb=3:   1703 shell pairs
          la=4 lb=0:   5000 shell pairs
          la=4 lb=1:   3984 shell pairs
          la=4 lb=2:   2368 shell pairs
          la=4 lb=3:   1362 shell pairs
          la=4 lb=4:    307 shell pairs

Calculating one electron integrals          ... done (  1.2 sec)
Calculating RI/JK V-Matrix + Cholesky decomp... done (  1.4 sec)
Calculating RI/C V-Matrix + Cholesky decomp.... done (  1.3 sec)
Calculating Nuclear repulsion               ... done (  0.0 sec) ENN=   3416.833816524175 Eh

Diagonalization of the overlap matrix:
Smallest eigenvalue                        ... 2.358e-08
Time for diagonalization                   ...    0.987 sec
Threshold for overlap eigenvalues          ... 1.000e-07
Number of eigenvalues below threshold      ... 3
Smallest eigenvalue above threshold        ... 1.420e-06

IMPORTANT:
Smallest eigenvalue of S below the DiffSThresh (1.000e-06) while
Thresh>1e-12 and/or TCut>1e-13! In order to avoid SCF convergence issues,
Thresh will be set to at least 1e-12 and TCut to at least 1e-13.
This can be turned off by adding %SCF DiffSThresh -1 END to the input.

Time for construction of square roots      ...    0.624 sec
Total time needed                          ...    1.680 sec

-------------------
DFT GRID GENERATION
-------------------

General Integration Accuracy     IntAcc      ... 4.959
Radial Grid Type                 RadialGrid  ... OptM3 with GC (2021)
Angular Grid (max. ang.)         AngularGrid ... 6 (Lebedev-590)
Angular grid pruning method      GridPruning ... 4 (adaptive)
Weight generation scheme         WeightScheme... mBecke (2022)
Basis function cutoff            BFCut       ... 1.0000e-10
Integration weight cutoff        WCut        ... 1.0000e-14
Partially contracted basis set               ... off
Rotationally invariant grid construction     ... off
Angular grids for H and He will be reduced by one unit
Diffuse basis detected: some atoms will have their outermost
                        angular grid increased by 1.

Total number of grid points                  ...   653927
Total number of batches                      ...    10244
Average number of points per batch           ...       63
Average number of grid points per atom       ...    12576
Initializing property integral containers    ... done (  0.0 sec)

SHARK setup successfully completed in  14.7 seconds

Maximum memory used throughout the entire STARTUP-calculation: 310.0 MB


           ************************************************************
           *        Program running with 104 parallel MPI-processes   *
           *              working on a common directory               *
           ************************************************************
-------------------------------------------------------------------------------
                                 ORCA GUESS
                   Start orbitals & Density for SCF / CASSCF
-------------------------------------------------------------------------------

------------
SCF SETTINGS
------------
Hamiltonian:
 Density Functional     Method          .... DFT(GTOs)
 Exchange Functional    Exchange        .... PBE
   PBE kappa parameter   XKappa         ....  0.804000
   PBE mue parameter    XMuePBE         ....  0.219520
 Correlation Functional Correlation     .... P86
 LDA part of GGA corr.  LDAOpt          .... VWN-5
 Gradients option       PostSCFGGA      .... off
 Hybrid DFT is turned on
   Fraction HF Exchange ScalHFX         ....  0.690000
   Scaling of DF-GGA-X  ScalDFX         ....  0.310000
   Scaling of DF-GGA-C  ScalDFC         ....  0.403800
   Scaling of DF-LDA-C  ScalLDAC        ....  0.403800
   Perturbative correction              ....  1.000000
 RI-approximation to the Coulomb term is turned on
   Number of AuxJK basis functions      .... 5972
   RI-JK (J+K treated both via RI)      .... on


General Settings:
 Integral files         IntName         .... compas3x_hc_c36h16_0pent_3_qz_riri
 Hartree-Fock type      HFTyp           .... RHF
 Total Charge           Charge          ....    0
 Multiplicity           Mult            ....    1
 Number of Electrons    NEL             ....  232
 Basis Dimension        Dim             .... 2532
 Nuclear Repulsion      ENuc            ....   3416.8338165242 Eh

Convergence Acceleration:
 AO-DIIS                CNVDIIS         .... on
   Start iteration      DIISMaxIt       ....    12
   Startup error        DIISStart       ....  0.200000
   # of expansion vecs  DIISMaxEq       ....     5
   Bias factor          DIISBfac        ....   1.050
   Max. coefficient     DIISMaxC        ....  10.000
 MO-DIIS                CNVKDIIS        .... off
 Trust-Rad. Augm. Hess. CNVTRAH         .... auto
   Auto Start mean grad. ratio tolernc. ....  1.125000
   Auto Start start iteration           ....    50
   Auto Start num. interpolation iter.  ....    10
   Max. Number of Micro iterations      ....    24
   Max. Number of Macro iterations      .... Maxiter - #DIIS iter
   Number of Davidson start vectors     ....     2
   Converg. threshold    (grad. norm)   ....   5.000e-05
   Grad. Scal. Fac. for Micro threshold ....   0.100
   Minimum threshold for Micro iter.    ....   1.000e-02
   NR start threshold (gradient norm)   ....   1.000e-04
   Initial trust radius                 ....   0.400
   Minimum AH scaling param. (alpha)    ....   1.000
   Maximum AH scaling param. (alpha)    .... 1000.000
   Quad. conv. algorithm                .... NR
   White noise on init. David. guess    .... on
   Maximum white noise                  ....   0.010
   Pseudo random numbers                .... off
   Inactive MOs                         .... canonical
   Orbital update algorithm             .... Taylor
   Preconditioner                       .... Diag
   Full preconditioner red. dimension   ....   250
 SOSCF                  CNVSOSCF        .... on
   Start iteration      SOSCFMaxIt      ....   150
   Startup grad/error   SOSCFStart      ....  0.003300
   Hessian update       SOSCFHessUp     .... L-BFGS
 Level Shifting         CNVShift        .... on
   Level shift para.    LevelShift      ....    0.2500
   Turn off err/grad.   ShiftErr        ....    0.0010
 Zerner damping         CNVZerner       .... off
 Static damping         CNVDamp         .... on
   Fraction old density DampFac         ....    0.7000
   Max. Damping (<1)    DampMax         ....    0.9800
   Min. Damping (>=0)   DampMin         ....    0.0000
   Turn off err/grad.   DampErr         ....    0.1000

SCF Procedure:
 Maximum # iterations   MaxIter         ....   125
 SCF integral mode      SCFMode         .... Direct
   Integral package                     .... SHARK and LIBINT hybrid scheme
 Reset frequency        DirectResetFreq ....    20
 Integral Threshold     Thresh          ....  1.000e-12 Eh
 Primitive CutOff       TCut            ....  1.000e-13 Eh

Convergence Tolerance:
 Convergence Check Mode ConvCheckMode   .... Total+1el-Energy
 Convergence forced     ConvForced      .... 0
 Energy Change          TolE            ....  1.000e-06 Eh
 1-El. energy change                    ....  1.000e-03 Eh
 Orbital Gradient       TolG            ....  5.000e-05
 Orbital Rotation angle TolX            ....  5.000e-05
 DIIS Error             TolErr          ....  1.000e-06

------------------------------
INITIAL GUESS: MODEL POTENTIAL
------------------------------
Loading Hartree-Fock densities                     ... done
Calculating cut-offs                               ... done
Initializing the effective Hamiltonian             ... done
Setting up the integral package (SHARK)            ... done
Starting the Coulomb interaction                   ... done (   0.7 sec)
Making the grid                                    ... done (   0.5 sec)
Mapping shells                                     ... done
Starting the XC term evaluation                    ... done (   0.2 sec)
  promolecular density results
     # of electrons  =    231.960280448
     EX              =   -189.195175859
     EC              =      0.269144225
     EX+EC           =   -188.926031634
Transforming the Hamiltonian                       ... done (   0.5 sec)
Diagonalizing the Hamiltonian                      ... done (   0.7 sec)
Back transforming the eigenvectors                 ... done (   0.9 sec)
Now organizing SCF variables                       ... done
                      ------------------
                      INITIAL GUESS DONE (   5.3 sec)
                      ------------------
             **** ENERGY FILE WAS UPDATED (compas3x_hc_c36h16_0pent_3_qz_riri.en.tmp) ****
Finished Guess after  23.1 sec
Maximum memory used throughout the entire GUESS-calculation: 343.7 MB


           ************************************************************
           *        Program running with 104 parallel MPI-processes   *
           *              working on a common directory               *
           ************************************************************

-------------------------------------------------------------------------------------------
                                      ORCA LEAN-SCF
                              memory conserving SCF solver
-------------------------------------------------------------------------------------------


Warning (ORCA_SCF): Not enough memory available!
                    Memory available for SCF calculation:       1024.0 MB
                    Memory needed (estimated)           :       1128.6 MB


----------------------------------------D-I-I-S--------------------------------------------
Iteration    Energy (Eh)           Delta-E    RMSDP     MaxDP     DIISErr   Damp  Time(sec)
-------------------------------------------------------------------------------------------
    1    -1375.7701391492969378     0.00e+00  2.56e-04  3.80e-02  1.51e-01  0.700  40.3
    2    -1375.5428052941720125     2.27e-01  2.12e-04  2.10e-02  1.35e-01  0.700  42.6
                               ***Turning on AO-DIIS***
    3    -1375.6909374137599116    -1.48e-01  1.62e-04  1.74e-02  7.96e-02  0.700  40.4
    4    -1375.9694588806064530    -2.79e-01  3.69e-04  6.20e-02  4.06e-02  0.000  39.6
    5    -1376.4382364587886514    -4.69e-01  8.52e-05  1.38e-02  3.38e-02  0.000  40.8
    6    -1376.4587810073567198    -2.05e-02  4.92e-05  7.25e-03  1.62e-02  0.000  40.1
    7    -1376.4634942229208718    -4.71e-03  1.81e-05  2.63e-03  4.38e-03  0.000  41.0
                              *** Initializing SOSCF ***
---------------------------------------S-O-S-C-F--------------------------------------
Iteration    Energy (Eh)           Delta-E    RMSDP     MaxDP     MaxGrad    Time(sec)
--------------------------------------------------------------------------------------
    8    -1376.4640016687776551    -5.07e-04  5.92e-06  5.15e-04  1.12e-03    43.4
    9    -1376.4640447652632247    -4.31e-05  4.32e-06  4.15e-04  2.56e-04    38.5
   10    -1376.4640515075648182    -6.74e-06  2.92e-06  2.43e-04  1.42e-04    38.4
   11    -1376.4640526125663200    -1.11e-06  1.15e-06  1.01e-04  8.65e-05    38.1
   12    -1376.4640532829257609    -6.70e-07  4.91e-07  4.13e-05  1.97e-05    39.2
                 **** Energy Check signals convergence ****

               *****************************************************
               *                     SUCCESS                       *
               *           SCF CONVERGED AFTER  12 CYCLES          *
               *****************************************************

             **** ENERGY FILE WAS UPDATED (compas3x_hc_c36h16_0pent_3_qz_riri.en.tmp) ****

----------------
TOTAL SCF ENERGY
----------------

Total Energy       :      -1376.46405328292576 Eh          -37455.49109 eV

Components:
Nuclear Repulsion  :       3416.83381652417529 Eh           92976.77500 eV
Electronic Energy  :      -4793.29786980710196 Eh         -130432.26609 eV
One Electron Energy:      -8661.01715976234118 Eh         -235678.25857 eV
Two Electron Energy:       3867.71928995523967 Eh          105245.99248 eV

Virial components:
Potential Energy   :      -2749.91999560487648 Eh          -74829.12732 eV
Kinetic Energy     :       1373.45594232195072 Eh           37373.63623 eV
Virial Ratio       :          2.00219017652353

DFT components:
N(Alpha)           :      116.000007417783 electrons
N(Beta)            :      116.000007417783 electrons
N(Total)           :      232.000014835566 electrons
E(X)               :      -59.590368480386 Eh       
E(C)               :       -3.488500261970 Eh       
E(XC)              :      -63.078868742357 Eh       

---------------
SCF CONVERGENCE
---------------

  Last Energy change         ...    6.7036e-07  Tolerance :   1.0000e-06
  Last MAX-Density change    ...    4.1280e-05  Tolerance :   1.0000e-05
  Last RMS-Density change    ...    4.9124e-07  Tolerance :   1.0000e-06
  Last DIIS Error            ...    1.1203e-03  Tolerance :   1.0000e-06
  Last Orbital Gradient      ...    1.9707e-05  Tolerance :   5.0000e-05
  Last Orbital Rotation      ...    9.0005e-05  Tolerance :   5.0000e-05


----------------
ORBITAL ENERGIES
----------------

  NO   OCC          E(Eh)            E(eV) 
   0   2.0000     -10.837611      -294.9064 
   1   2.0000     -10.837609      -294.9063 
   2   2.0000     -10.836984      -294.8893 
   3   2.0000     -10.836966      -294.8888 
   4   2.0000     -10.836404      -294.8735 
   5   2.0000     -10.836281      -294.8702 
   6   2.0000     -10.835817      -294.8576 
   7   2.0000     -10.835569      -294.8508 
   8   2.0000     -10.834467      -294.8208 
   9   2.0000     -10.834454      -294.8205 
  10   2.0000     -10.834287      -294.8159 
  11   2.0000     -10.834199      -294.8135 
  12   2.0000     -10.833921      -294.8060 
  13   2.0000     -10.833920      -294.8059 
  14   2.0000     -10.833324      -294.7897 
  15   2.0000     -10.833321      -294.7897 
  16   2.0000     -10.832755      -294.7742 
  17   2.0000     -10.832754      -294.7742 
  18   2.0000     -10.832684      -294.7723 
  19   2.0000     -10.832682      -294.7723 
  20   2.0000     -10.825552      -294.5783 
  21   2.0000     -10.825551      -294.5782 
  22   2.0000     -10.825119      -294.5665 
  23   2.0000     -10.825119      -294.5665 
  24   2.0000     -10.824387      -294.5465 
  25   2.0000     -10.824387      -294.5465 
  26   2.0000     -10.824256      -294.5430 
  27   2.0000     -10.824254      -294.5429 
  28   2.0000     -10.823907      -294.5335 
  29   2.0000     -10.823907      -294.5335 
  30   2.0000     -10.823768      -294.5297 
  31   2.0000     -10.823764      -294.5296 
  32   2.0000     -10.822816      -294.5038 
  33   2.0000     -10.822813      -294.5037 
  34   2.0000     -10.822135      -294.4853 
  35   2.0000     -10.822128      -294.4851 
  36   2.0000      -1.113183       -30.2913 
  37   2.0000      -1.091413       -29.6989 
  38   2.0000      -1.069229       -29.0952 
  39   2.0000      -1.064415       -28.9642 
  40   2.0000      -1.035602       -28.1802 
  41   2.0000      -1.026351       -27.9284 
  42   2.0000      -1.005138       -27.3512 
  43   2.0000      -1.002673       -27.2841 
  44   2.0000      -0.975606       -26.5476 
  45   2.0000      -0.963388       -26.2151 
  46   2.0000      -0.955040       -25.9880 
  47   2.0000      -0.930132       -25.3102 
  48   2.0000      -0.922535       -25.1035 
  49   2.0000      -0.918523       -24.9943 
  50   2.0000      -0.913236       -24.8504 
  51   2.0000      -0.887472       -24.1493 
  52   2.0000      -0.880900       -23.9705 
  53   2.0000      -0.861095       -23.4316 
  54   2.0000      -0.800483       -21.7823 
  55   2.0000      -0.797009       -21.6877 
  56   2.0000      -0.792880       -21.5754 
  57   2.0000      -0.789643       -21.4873 
  58   2.0000      -0.780378       -21.2352 
  59   2.0000      -0.762317       -20.7437 
  60   2.0000      -0.755985       -20.5714 
  61   2.0000      -0.725912       -19.7531 
  62   2.0000      -0.713609       -19.4183 
  63   2.0000      -0.704081       -19.1590 
  64   2.0000      -0.679983       -18.5033 
  65   2.0000      -0.664846       -18.0914 
  66   2.0000      -0.663786       -18.0625 
  67   2.0000      -0.658362       -17.9149 
  68   2.0000      -0.638748       -17.3812 
  69   2.0000      -0.622023       -16.9261 
  70   2.0000      -0.620428       -16.8827 
  71   2.0000      -0.615338       -16.7442 
  72   2.0000      -0.592566       -16.1245 
  73   2.0000      -0.591799       -16.1037 
  74   2.0000      -0.584102       -15.8942 
  75   2.0000      -0.575235       -15.6529 
  76   2.0000      -0.562434       -15.3046 
  77   2.0000      -0.560591       -15.2544 
  78   2.0000      -0.554635       -15.0924 
  79   2.0000      -0.542714       -14.7680 
  80   2.0000      -0.539448       -14.6791 
  81   2.0000      -0.539212       -14.6727 
  82   2.0000      -0.528557       -14.3828 
  83   2.0000      -0.524545       -14.2736 
  84   2.0000      -0.523718       -14.2511 
  85   2.0000      -0.518395       -14.1062 
  86   2.0000      -0.512809       -13.9542 
  87   2.0000      -0.512321       -13.9410 
  88   2.0000      -0.501148       -13.6369 
  89   2.0000      -0.492645       -13.4055 
  90   2.0000      -0.490076       -13.3356 
  91   2.0000      -0.486139       -13.2285 
  92   2.0000      -0.485594       -13.2137 
  93   2.0000      -0.477917       -13.0048 
  94   2.0000      -0.467570       -12.7232 
  95   2.0000      -0.464528       -12.6405 
  96   2.0000      -0.458116       -12.4660 
  97   2.0000      -0.452123       -12.3029 
  98   2.0000      -0.445103       -12.1119 
  99   2.0000      -0.439227       -11.9520 
 100   2.0000      -0.430480       -11.7140 
 101   2.0000      -0.422663       -11.5012 
 102   2.0000      -0.406546       -11.0627 
 103   2.0000      -0.406187       -11.0529 
 104   2.0000      -0.405591       -11.0367 
 105   2.0000      -0.399458       -10.8698 
 106   2.0000      -0.366799        -9.9811 
 107   2.0000      -0.354821        -9.6552 
 108   2.0000      -0.348543        -9.4843 
 109   2.0000      -0.319157        -8.6847 
 110   2.0000      -0.311241        -8.4693 
 111   2.0000      -0.303631        -8.2622 
 112   2.0000      -0.298099        -8.1117 
 113   2.0000      -0.264141        -7.1876 
 114   2.0000      -0.250378        -6.8131 
 115   2.0000      -0.213699        -5.8151 
 116   0.0000      -0.025734        -0.7003 
 117   0.0000       0.008408         0.2288 
 118   0.0000       0.018598         0.5061 
 119   0.0000       0.040094         1.0910 
 120   0.0000       0.050923         1.3857 
 121   0.0000       0.060054         1.6341 
 122   0.0000       0.061379         1.6702 
 123   0.0000       0.073537         2.0010 
 124   0.0000       0.077107         2.0982 
 125   0.0000       0.078278         2.1301 
 126   0.0000       0.086294         2.3482 
*Only the first 10 virtual orbitals were printed.
-------
TIMINGS
-------

Total SCF time: 0 days 0 hours 8 min 22 sec 

Total time                  ....     502.557 sec
Sum of individual times     ....     501.905 sec  ( 99.9%)

SCF preparation             ....      16.779 sec  (  3.3%)
Fock matrix formation       ....     439.131 sec  ( 87.4%)
  Startup                   ....       3.212 sec  (  0.7% of F)
  RI-JK                     ....     405.312 sec  ( 92.3% of F)
  XC integration            ....      22.829 sec  (  5.2% of F)
    XC Preparation          ....       0.000 sec  (  0.0% of XC)
    Basis function eval.    ....       1.608 sec  (  7.0% of XC)
    Density eval.           ....       4.616 sec  ( 20.2% of XC)
    XC-Functional eval.     ....       0.043 sec  (  0.2% of XC)
    XC-Potential eval.      ....       6.819 sec  ( 29.9% of XC)
Diagonalization             ....       0.000 sec  (  0.0%)
Density matrix formation    ....       6.915 sec  (  1.4%)
Total Energy calculation    ....       2.027 sec  (  0.4%)
Population analysis         ....       0.000 sec  (  0.0%)
Orbital Transformation      ....       4.648 sec  (  0.9%)
Orbital Orthonormalization  ....       0.000 sec  (  0.0%)
DIIS solution               ....      24.540 sec  (  4.9%)
SOSCF solution              ....       7.659 sec  (  1.5%)
Finished LeanSCF after 503.2 sec

Maximum memory used throughout the entire LEANSCF-calculation: 1181.6 MB


           ************************************************************
           *        Program running with 104 parallel MPI-processes   *
           *              working on a common directory               *
           ************************************************************

------------------------------------------------------------------------------
                                ORCA  MP2 
------------------------------------------------------------------------------


-------------
RI-MP2 ENERGY
-------------
Dimension of the orbital basis            ... 2532
Dimension of the AuxC basis               ... 5972
Memory devoted to MP2                     ... 4096 MB   
Data format for matrix containers         ... DOUBLE
Compression type for matrix containers    ... UNCOMPRESSED
Scaling for aa/bb pairs                   ...   5.710e-02
Scaling for ab pairs                      ...   5.979e-01
Overall scaling of the MP2 energy         ...   1.000e+00

-----------------------
SHARK RI TRANSFORMATION
-----------------------

Number of basis functions                ...   2532
Number of aux functions                  ...   5972
Number of operators                      ...      1
Generation of IJK                        ... NO
Generation of IAK                        ... YES
Generation of ABK                        ... NO
Orbital Range Operator  0:    0- 115 to  116-2531

Aux basis identifier                     ...   AUXC
Contraction scheme used                  ... SEGMENTED
Do orthogonalization                     ... YES
All operator combinations                ... NO
Transpose (ia|K)                         ... NO
Integral generator used                  ... LIBINT
Starting integral generation + trafo... 
Half trafo (segmented) done. Total time = 14.2 sec. integrals=  3.3 sec trafo= 10.5 sec
Integral generation and half transformation done ( 14.2 sec)

Reading or making V^(-1/2)          ... done (  0.6 sec)
Sorting IAK integrals               ... done ( 13.6 sec)

SHARK RI integral transformation done. Total time = 28.7 sec.

Opening buffers                              ... done

Starting loop over batches of integrals:

Operator 0  - window                       ... (  0-115)x(116-2531)
Operator 0  - Memory available             ...  4096 MB
Operator 0  - Memory needed per MO         ... 110.1 MB
Operator 0  - Number of orbitals per batch ... 2
Operator 0  - Number of batches            ... 1

OPERATOR  0   PASS   0:  MOs     0 ...    1 +    2 ...    3 +    4 ...    5 +    6 ...    7
                            +    8 ...    9 +   10 ...   11 +   12 ...   13 +   14 ...   15
                            +   16 ...   17 +   18 ...   19 +   20 ...   21 +   22 ...   23
                            +   24 ...   25 +   26 ...   27 +   28 ...   29 +   30 ...   31
                            +   32 ...   33 +   34 ...   35 +   36 ...   37 +   38 ...   39
                            +   40 ...   41 +   42 ...   43 +   44 ...   45 +   46 ...   47
                            +   48 ...   49 +   50 ...   51 +   52 ...   53 +   54 ...   55
                            +   56 ...   57 +   58 ...   59 +   60 ...   61 +   62 ...   63
                            +   64 ...   65 +   66 ...   67 +   68 ...   69 +   70 ...   71
                            +   72 ...   73 +   74 ...   75 +   76 ...   77 +   78 ...   79
                            +   80 ...   81 +   82 ...   83 +   84 ...   85 +   86 ...   87
                            +   88 ...   89 +   90 ...   91 +   92 ...   93 +   94 ...   95
                            +   96 ...   97 +   98 ...   99 +  100 ...  101 +  102 ...  103
                            +  104 ...  105 +  106 ...  107 +  108 ...  109 +  110 ...  111
                            +  112 ...  113 +  114 ...  115
  Reading integrals       ... ok
Time spent in pair loops =   293.080 sec

-----------------------------------------------
 RI-MP2 CORRELATION ENERGY:     -3.508615153 Eh
-----------------------------------------------


-------
TIMINGS
-------

Total time                :  327.305 sec
Integral trafo            :   29.081 sec (  8.9%)
I/O of integrals          :    0.270 sec (  0.1%)
K(i,j) operators          :    3.835 sec (  1.2%)
T(i,j) pair energies      :    0.389 sec (  0.1%)
V**(-1/2)                 :    5.143 sec (  1.6%)


---------------------------------------
MP2 TOTAL ENERGY:    -1379.972668436 Eh
---------------------------------------

Maximum memory used throughout the entire MP2-calculation: 876.3 MB


-------------------------------------------------------------------------------
                          DFT DISPERSION CORRECTION                            
                                                                               
                                DFTD4 V3.4.0                                   
-------------------------------------------------------------------------------
The REV-DSD-PBEP86-2021 functional is recognized
A user input s6-coefficient scaling factor has been recognized
A user input a1-coefficient scaling factor has been recognized
A user input s8-coefficient scaling factor has been recognized
A user input a2-coefficient scaling factor has been recognized
A user input s9-coefficient scaling factor has been recognized
Active option DFTDOPT                   ...         5   

-------------------------   ----------------
Dispersion correction           -0.061599059
-------------------------   ----------------


-------------------------   --------------------
FINAL SINGLE POINT ENERGY     -1380.034267495258
-------------------------   --------------------



           ************************************************************
           *        Program running with 104 parallel MPI-processes   *
           *              working on a common directory               *
           ************************************************************

------------------------------------------------------------------------------
                              ORCA PROPERTY CALCULATIONS
------------------------------------------------------------------------------

GBWName                                 ... compas3x_hc_c36h16_0pent_3_qz_riri.gbw
Number of atoms                         ...     52
Number of basis functions               ...   2532
Max core memory                         ...   1024 MB

Electric properties:
Dipole moment                           ... YES
Quadrupole moment                       ...  NO
Static polarizability (Dipole/Dipole)   ...  NO
Static polarizability (Dipole/Quad.)    ...  NO
Static polarizability (Quad./Quad.)     ...  NO
Static polarizability (Velocity)        ...  NO

Atomic electric properties:
Dipole moment                           ...  NO
Quadrupole moment                       ...  NO
Static polarizability                   ...  NO

Choice of electric origin               ... Center of mass
Position of electric origin             ...    -0.000072    -0.000039     0.000284

General magnetic properties:
Magnetizability                         ...  NO

EPR properties:
g-Tensor (aka g-matrix)                 ...  NO
Zero-Field splitting spin-orbit         ...  NO
Zero-field splitting spin-spin          ...  NO
Hyperfine couplings                     ...  NO (   0 nuclei)
Quadrupole couplings                    ...  NO (   0 nuclei)
Contact density                         ...  NO (   0 nuclei)

NMR properties:
Chemical shifts                         ...  NO (   0 nuclei)
Spin-rotation constants                 ...  NO (   0 nuclei)
Spin-spin couplings                     ...  NO (   0 nuclei,    0 pairs)

Choice of magnetic origin               ... GIAO
Position of magnetic origin             ...     0.000000     0.000000     0.000000

Properties with geometric perturbations:
SCF Hessian                             ...  NO
IR spectrum                             ...  NO
VCD spectrum                            ...  NO
X-ray spectroscopy properties:
SCF XES/XAS/RIXS spectra                ...  NO


-------------
DIPOLE MOMENT
-------------

Method             : SCF
Type of density    : Electron Density
Multiplicity       :   1
Irrep              :   0
Energy             : -1376.4640532829257609 Eh
Relativity type    : 
Basis              : AO
                                X                 Y                 Z
Electronic contribution:      0.000041545      -0.000100119       0.006280541
Nuclear contribution   :     -0.000028686       0.000075780      -0.006983048
                        -----------------------------------------
Total Dipole Moment    :      0.000012859      -0.000024339      -0.000702507
                        -----------------------------------------
Magnitude (a.u.)       :      0.000703046
Magnitude (Debye)      :      0.001787001



--------------------
Rotational spectrum 
--------------------
 
Rotational constants in cm-1:             0.008288             0.002938             0.002169 
Rotational constants in MHz :           248.476004            88.083025            65.030290 

Dipole components along the rotational axes: 
x,y,z [a.u.] :     0.000027     0.000004    -0.000703 
x,y,z [Debye]:     0.000069     0.000010    -0.001786 

 

Dipole moment calculation done in   0.4 sec 

Maximum memory used throughout the entire PROP-calculation: 398.9 MB

--------------------------------
SUGGESTED CITATIONS FOR THIS RUN
--------------------------------

Below you find a list of papers that are relevant to this ORCA run
We neither can nor want to force you to cite these papers, but we appreciate if you do
You receive ORCA, which is the product of decades of hard work by many enthusiastic individuals, for free
The only thing we kindly ask in return is that you cite our papers,
We deeply appreciate it, if you show your appreciation for ORCA by not just citing the generic ORCA reference.

Please note that relegating all ORCA citations to the supporting information does *not* help us.
SI sections are not indexed - citations you put there will not count into any citation statistics
But we need these citations in order to attract the funding resources that allow us to do what we are doing

Therefore, if you are a happy ORCA user, please consider citing a few of the papers listed below in the main body of your paper

In addition to the list printed below, the program has created the file compas3x_hc_c36h16_0pent_3_qz_riri.bibtex that contains the list in bibtex format
You can import this file easily into all common literature databanks and citation aid programs


List of essential papers. We consider these as the minimum necessary citations

  1. Neese,F.
     Software update: the ORCA program system, version 5.0
     WIRES Comput. Molec. Sci., 2022 12(1)e1606
     doi.org/10.1002/wcms.1606

List of papers to cite with high priority. The work reported in these papers was absolutely
necessary for this run to complete.
Our perspective: the developers of density functionals and basis sets usually get cited in chemistry papers
Good! But without the algorithms to do something with them, the functionals or basis sets would not do anything.
Hence, in our opinion, the algorithm design and method developments papers are equally worthy of getting cited

  1. Neese,F.
     An improvement of the resolution of the identity approximation for the formation of the Coulomb matrix
     J. Comp. Chem., 2003 24(14)1740-1747
     doi.org/10.1002/jcc.10318
  2. Kossmann,S.; Neese,F.
     Comparison of two efficient approximate Hartee-Fock approaches
     Chem. Phys. Lett., 2009 481 240-243
     doi.org/10.1016/j.cplett.2009.09.073
  3. Neese,F.
     The SHARK Integral Generation and Digestion System
     J. Comp. Chem., 2022  1-16
     doi.org/10.1002/jcc.26942
  4. Caldeweyher,E.; Bannwarth,C.; Grimme,S.
     Extension of the D3 dispersion coefficient model
     J. Chem. Phys., 2017 147 034112
     doi.org/10.1063/1.4993215
  5. Caldeweyher,E.; Ehlert,S.; Hansen,A.; Neugebauer,H.; Spicher,S.; Bannwarth,C.; Grimme,S.
     A generally applicable atomic-charge dependent London dispersion correction
     J. Chem. Phys., 2019 150 154122
     doi.org/10.1063/1.5090222
  6. Caldeweyher,E.; Mewes,J.; Ehlert,S.; Grimme,S.
     Extension and evaluation of the D4 London-dispersion model for periodic systems
     Phys. Chem. Chem. Phys., 2020 22(16)8499-8512
     doi.org/10.1039/D0CP00502A
  7. Wittmann,L.; Gordiy,I.; Friede,M.; Helmich-Paris,B.; Grimme,S.; Hansen,A.; Bursch,M.
     Extension of the D3 and D4 London Dispersion Corrections to the full Actinides Series
     Phys. Chem. Chem. Phys., 2024 26(32)21379-21394
     doi.org/https://doi.org/10.1039/D4CP01514B 

List of suggested additional citations. These are papers that are important in the 'surrounding' of 
of this run, or papers that preceded the highly important papers. If you like your results we are grateful for a citation.

  1. Neese,F.
     The ORCA program system
     WIRES Comput. Molec. Sci., 2012 2(1)73-78
     doi.org/10.1002/wcms.81
  2. Neese,F.
     Software update: the ORCA program system, version 4.0
     WIRES Comput. Molec. Sci., 2018 8(1)1-6
     doi.org/10.1002/wcms.1327
  3. Neese,F.; Wennmohs,F.; Becker,U.; Riplinger,C.
     The ORCA quantum chemistry program package
     J. Chem. Phys., 2020 152 Art. No. L224108
     doi.org/10.1063/5.0004608

List of optional additional citations

  1. Neese,F.
     Approximate second-order SCF convergence for spin unrestricted wavefunctions
     Chem. Phys. Lett., 2000 325(1-3)93-98
     doi.org/10.1016/s0009-2614(00)00662-x

Timings for individual modules:

Sum of individual times          ...      924.682 sec (=  15.411 min)
Startup calculation              ...       31.387 sec (=   0.523 min)   3.4 %
SCF iterations                   ...      528.991 sec (=   8.817 min)  57.2 %
Property calculations            ...       18.383 sec (=   0.306 min)   2.0 %
MP2 module                       ...      345.921 sec (=   5.765 min)  37.4 %
                             ****ORCA TERMINATED NORMALLY****
TOTAL RUN TIME: 0 days 0 hours 15 minutes 41 seconds 708 msec
