
                                 *****************
                                 * O   R   C   A *
                                 *****************

                                            #,                                       
                                            ###                                      
                                            ####                                     
                                            #####                                    
                                            ######                                   
                                           ########,                                 
                                     ,,################,,,,,                         
                               ,,#################################,,                 
                          ,,##########################################,,             
                       ,#########################################, ''#####,          
                    ,#############################################,,   '####,        
                  ,##################################################,,,,####,       
                ,###########''''           ''''###############################       
              ,#####''   ,,,,##########,,,,          '''####'''          '####       
            ,##' ,,,,###########################,,,                        '##       
           ' ,,###''''                  '''############,,,                           
         ,,##''                                '''############,,,,        ,,,,,,###''
      ,#''                                            '''#######################'''  
     '                                                          ''''####''''         
             ,#######,   #######,   ,#######,      ##                                
            ,#'     '#,  ##    ##  ,#'     '#,    #''#        ,####,   ,####,        
            ##       ##  ##   ,#'  ##            #'  '#       #'       #'  '#        
            ##       ##  #######   ##           ,######,      #####,   #    #        
            '#,     ,#'  ##    ##  '#,     ,#' ,#      #,     #,   #   #,  ,#        
             '#######'   ##     ##  '#######'  #'      '#     '####' # '####'        



                #########################################################
                #                        -***-                          #
                #          Department of theory and spectroscopy        #
                #                                                       #
                #                      Frank Neese                      #
                #                                                       #
                #     Directorship, Architecture, Infrastructure        #
                #                    SHARK, DRIVERS                     #
                #        Core code/Algorithms in most modules           #
                #                                                       #
                #        Max Planck Institute fuer Kohlenforschung      #
                #                Kaiser Wilhelm Platz 1                 #
                #                 D-45470 Muelheim/Ruhr                 #
                #                      Germany                          #
                #                                                       #
                #                  All rights reserved                  #
                #                        -***-                          #
                #########################################################


                         Program Version 6.0.1  -  RELEASE   -


 With contributions from (in alphabetic order):
[Max-Planck-Institut fuer Kohlenforschung]                               
  Daniel Aravena         : Magnetic Suceptibility                        
  Michael Atanasov       : Ab Initio Ligand Field Theory (pilot matlab implementation)
  Alexander A. Auer      : GIAO ZORA, VPT2 properties, NMR spectrum      
  Ute Becker             : All parallelization in ORCA, NUMFREQ, NUMCALC 
  Giovanni Bistoni       : ED, misc. LED, open-shell LED, HFLD           
  Martin Brehm           : Molecular dynamics                            
  Dmytro Bykov           : pre 5.0 version of the SCF Hessian            
  Marcos Casanova-Páez   : Triplet and SCS-CIS(D). UHF-(DLPNO)-IP/EA/STEOM-CCSD. UHF-CVS-IP/STEOM-CCSD   
  Vijay G. Chilkuri      : MRCI spin determinant printing, contributions to CSF-ICE 
  Pauline Colinet        : FMM embedding                                 
  Dipayan Datta          : RHF DLPNO-CCSD density                        
  Achintya Kumar Dutta   : EOM-CC, STEOM-CC                              
  Nicolas Foglia         : Exact transition moments, OPA infrastructure, MCD improvements    
  Dmitry Ganyushin       : Spin-Orbit,Spin-Spin,Magnetic field MRCI      
  Miquel Garcia-Rates    : C-PCM and meta-GGA Hessian, CCSD/C-PCM, Gaussian charge scheme 
  Tiago L. C. Gouveia    : GS-ROHF, GS-ROCIS                             
  Yang Guo               : DLPNO-NEVPT2, F12-NEVPT2, CIM, IAO-localization        
  Andreas Hansen         : Spin unrestricted coupled pair/coupled cluster methods 
  Ingolf Harden          : AUTO-CI MPn and infrastructure                
  Benjamin Helmich-Paris : MC-RPA, TRAH-(SCF,CASSCF), AVAS, COSX integrals, SCF dyn. polar. 
  Lee Huntington         : MR-EOM, pCC                                   
  Robert Izsak           : Overlap fitted RIJCOSX, COSX-SCS-MP3, EOM     
  Riya Kayal             : Wick's Theorem for AUTO-CI, AUTO-CI UHF-CCSDT 
  Emily Kempfer          : AUTO-CI, RHF CISDT and CCSDT                  
  Christian Kollmar      : KDIIS, OOCD, Brueckner-CCSD(T), CCSD density, CASPT2, CASPT2-K, improved NEVPT2 
  Axel Koslowski         : Symmetry handling                             
  Simone Kossmann        : meta-GGA functionals, TD-DFT gradient, OOMP2, (MP2 Hessian; deprecated post 5.0) 
  Lucas Lang             : DCDCAS                                        
  Marvin Lechner         : AUTO-CI (C++ implementation), FIC-MRCC        
  Spencer Leger          : CASSCF response                               
  Dagmar Lenk            : GEPOL surface, SMD, ORCA-2-JSON               
  Dimitrios Liakos       : Extrapolation schemes; Compound Job, initial MDCI parallelization 
  Dimitrios Manganas     : Further ROCIS development; embedding schemes. LFT, Crystal Embedding 
  Dimitrios Pantazis     : SARC Basis sets                               
  Anastasios Papadopoulos: AUTO-CI, single reference methods and gradients 
  Taras Petrenko         : pre 6.0 DFT Hessian and TD-DFT gradient, (ASA, deprecated), ECA, 1-Electron XAS/XES, NRVS 
  Peter Pinski           : DLPNO-MP2, DLPNO-MP2 Gradient                 
  Christoph Reimann      : Effective Core Potentials                     
  Marius Retegan         : Local ZFS, SOC                                
  Christoph Riplinger    : Optimizer, TS searches, QM/MM, DLPNO-CCSD(T), (RO)-DLPNO pert. Triples 
  Michael Roemelt        : Original ROCIS implementation                 
  Masaaki Saitow         : Open-shell DLPNO-CCSD energy and density      
  Barbara Sandhoefer     : DKH picture change effects                    
  Kantharuban Sivalingam : CASSCF convergence/infrastructure, NEVPT2 and variants, FIC-MRCI 
  Bernardo de Souza      : ESD, SOC TD-DFT                               
  Georgi L. Stoychev     : AutoAux, RI-MP2 NMR, DLPNO-MP2 response, X2C  
  Van Anh Tran           : RI-MP2 g-tensors                              
  Willem Van den Heuvel  : Paramagnetic NMR                              
  Zikuan Wang            : NOTCH, Electric field optimization            
  Frank Wennmohs         : Technical directorship and infrastructure     
  Hang Xu                : AUTO-CI-Response properties                   
                                                                         
[FACCTs GmbH]                                                            
  Markus Bursch, Miquel Garcia-Rates, Christoph Riplinger, Bernardo de Souza, Georgi L. Stoychev 
                                                                 
  APM, Basis sets (HGBS, AHGBS, def-TZVP (Ac-Lr), def2-XVPD (La-Lu)), CI-OPT, improved COSX, DLPNO-Multilevel,           
  DOCKER, DRACO, updates on ESD, GOAT, IRC, LR-CPCM, MBIS, meta-GGA TD-DFT gradient, ML-optimized integration grids, 
  MM, NACMEs, nearIR, NEB, NEB-TS, NL-DFT gradient (VV10), 2- and 3-layer-ONIOM, interface openCOSMO-RS, QMMM,   
  Crystal-QMMM, SF, symmetry and pop. for TD-DFT, r2SCAN hybrids, SOLVATOR                                   
                                                                         
[Other institutions]                                                     
  V. Asgeirsson          : NEB                                           
  Christoph Bannwarth    : sTDA-DFT, sTD-DFT, PBEh-3c, B97-3c, D3        
  Sebastian Ehlert       : rSCAN, r2SCAN, r2SCAN-3c, D4, dhf basis sets  
  Marvin Friede          : D4 for Fr, Ra, Ac-Lr                          
  Lars Goerigk           : TD-DFT with DH, B97 family of functionals     
  Stefan Grimme          : VdW corrections, initial TS optimization, DFT functionals, gCP, sTDA/sTD-DF 
  Waldemar Hujo          : DFT-NL                                        
  H. Jonsson             : NEB                                           
  Holger Kruse           : gCP                                           
  Marcel Mueller         : wB97X-3c, vDZP basis set                      
  Hagen Neugebauer       : wr2SCAN                                       
  Tobias Risthaus        : range-separated hybrid DFT                    
  Lukas Wittmann         : regularized MP2, r2SCAN double-hybrids, wr2SCAN        
                                                                         
We gratefully acknowledge several colleagues who have allowed us to      
interface, adapt or use parts of their codes:                            
  Ed Valeev, F. Pavosevic, A. Kumar             : LibInt (2-el integral package), F12 methods 
  Garnet Chan, S. Sharma, J. Yang, R. Olivares  : DMRG                   
  Ulf Ekstrom                                   : XCFun DFT Library      
  Mihaly Kallay                                 : mrcc  (arbitrary order and MRCC methods)
  Frank Weinhold                                : gennbo (NPA and NBO analysis)           
  Simon Mueller                                 : openCOSMO-RS                            
  Christopher J. Cramer and Donald G. Truhlar   : smd solvation model                     
  S Lehtola, MJT Oliveira, MAL Marques          : LibXC Library                           
  Liviu Ungur et al                             : ANISO software                          


 Your calculation uses the libint2 library for the computation of 2-el integrals
 For citations please refer to: http://libint.valeyev.net

 Your ORCA version has been built with support for libXC version: 6.2.2
 For citations please refer to: https://libxc.gitlab.io

 This ORCA versions uses:
   CBLAS   interface :  Fast vector & matrix operations
   LAPACKE interface :  Fast linear algebra routines
   SCALAPACK package :  Parallel linear algebra routines
   Shared memory     :  Shared parallel matrices
   BLAS/LAPACK       :  OpenBLAS 0.3.27  USE64BITINT DYNAMIC_ARCH NO_AFFINITY SapphireRapids SINGLE_THREADED
        Core in use  :  SapphireRapids
   Copyright (c) 2011-2014, The OpenBLAS Project


Warning! Weird basis set assignment to AuxJK basis!


***************************************
The coordinates will be read from file: /g/data/kx58/rs2200/dhdft/inputs/compas3D-xyzs/hc_c24h12_0pent_1.xyz
***************************************


Your calculation utilizes the atom-pairwise dispersion correction
based on EEQ partial charges (D4)


================================================================================

----- Orbital basis set information -----
Your calculation utilizes the basis: def2-QZVPP
   F. Weigend and R. Ahlrichs, Phys. Chem. Chem. Phys. 7, 3297 (2005).

----- AuxC basis set information -----
Your calculation utilizes the auxiliary basis: def2-QZVPP/C
  H-La, Hf-Rn : A. Hellweg, C. Hattig, S. Hofener and W. Klopper, Theor. Chem. Acc. 117, 587 (2007).
        Ce-Lu : J. Chmela and M. E. Harding, Mol. Phys. (2018).

----- AuxJK basis set information -----
Your calculation utilizes the auxiliary basis: def2-QZVPP/C
  H-La, Hf-Rn : A. Hellweg, C. Hattig, S. Hofener and W. Klopper, Theor. Chem. Acc. 117, 587 (2007).
        Ce-Lu : J. Chmela and M. E. Harding, Mol. Phys. (2018).

================================================================================
                                        WARNINGS
                       Please study these warnings very carefully!
================================================================================


WARNING: No MP2 level density has been requested!
         To calculate MP2 level properties use
         %mp2 Density relaxed end
         or
         %mp2 Density unrelaxed end
         Otherwise for double-hybrid DFT only the energy is correct!

================================================================================
                                       INPUT FILE
================================================================================
NAME = compas3D_hc_c24h12_0pent_1_qz_riri.inp
|  1> ! RKS revDSD-PBEP86-D4/2021 defgrid3  RIJK NOPOP NoFrozencore NoUseSym
|  2> 
|  3> %basis
|  4> Basis "def2-QZVPP"
|  5> AuxJK "def2-QZVPP/C"
|  6> AuxC "def2-QZVPP/C"
|  7> end
|  8> 
|  9> %method
| 10> ScalHFX 0.69
| 11> ScalDFX 0.31
| 12> ScalDFC 0.4038
| 13> ScalLDAC 0.4038
| 14> 
| 15> D4S6 0.4612
| 16> D4S8 0.0
| 17> D4A1 0.44
| 18> D4A2 3.60
| 19> end
| 20> 
| 21> %mp2
| 22> PS 0.5979
| 23> PT 0.0571
| 24> 
| 25> end
| 26> 
| 27> %pal
| 28> nprocs 104
| 29> end
| 30> 
| 31> *XYZFILE 0 1 /g/data/kx58/rs2200/dhdft/inputs/compas3D-xyzs/hc_c24h12_0pent_1.xyz
| 32> 
| 33>                          ****END OF INPUT****
================================================================================

                       ****************************
                       * Single Point Calculation *
                       ****************************

---------------------------------
CARTESIAN COORDINATES (ANGSTROEM)
---------------------------------
  C      0.950297    1.064200    0.001401
  C      1.397052   -0.290698   -0.000310
  C      0.446733   -1.354898   -0.001663
  C     -0.950187   -1.064144   -0.001343
  C     -1.396942    0.290754    0.000349
  C     -0.446623    1.354953    0.001730
  C      1.890914    2.117622    0.002778
  C      3.278805    1.799979    0.002390
  C      3.706664    0.502405    0.000729
  C      2.779807   -0.578375   -0.000650
  C      3.198426   -1.939176   -0.002323
  C      2.288365   -2.958246   -0.003594
  C      0.888930   -2.696077   -0.003311
  C     -0.080331   -3.738906   -0.004639
  C     -1.418016   -3.460456   -0.004369
  C     -1.890803   -2.117567   -0.002713
  C     -0.888819    2.696132    0.003410
  C      0.080442    3.738962    0.004788
  C      1.418127    3.460511    0.004498
  C     -3.278693   -1.799923   -0.002385
  C     -3.706552   -0.502349   -0.000760
  C     -2.779696    0.578431    0.000651
  C     -3.198316    1.939232    0.002334
  C     -2.288254    2.958302    0.003664
  H      4.002136    2.618638    0.003460
  H      4.775000    0.274816    0.000448
  H      4.268836   -2.157004   -0.002564
  H      2.625624   -3.997202   -0.004851
  H      0.266564   -4.774709   -0.005885
  H     -2.149176   -4.272051   -0.005433
  H     -0.266454    4.774764    0.006097
  H      2.149288    4.272106    0.005602
  H     -4.002024   -2.618583   -0.003476
  H     -4.774888   -0.274761   -0.000534
  H     -4.268725    2.157060    0.002536
  H     -2.625513    3.997258    0.004940

----------------------------
CARTESIAN COORDINATES (A.U.)
----------------------------
  NO LB      ZA    FRAG     MASS         X           Y           Z
   0 C     6.0000    0    12.011    1.795802    2.011047    0.002647
   1 C     6.0000    0    12.011    2.640047   -0.549340   -0.000585
   2 C     6.0000    0    12.011    0.844204   -2.560385   -0.003143
   3 C     6.0000    0    12.011   -1.795592   -2.010941   -0.002539
   4 C     6.0000    0    12.011   -2.639837    0.549445    0.000659
   5 C     6.0000    0    12.011   -0.843995    2.560490    0.003270
   6 C     6.0000    0    12.011    3.573311    4.001726    0.005249
   7 C     6.0000    0    12.011    6.196044    3.401467    0.004517
   8 C     6.0000    0    12.011    7.004579    0.949407    0.001377
   9 C     6.0000    0    12.011    5.253073   -1.092970   -0.001228
  10 C     6.0000    0    12.011    6.044150   -3.664511   -0.004391
  11 C     6.0000    0    12.011    4.324383   -5.590275   -0.006791
  12 C     6.0000    0    12.011    1.679834   -5.094847   -0.006256
  13 C     6.0000    0    12.011   -0.151804   -7.065509   -0.008766
  14 C     6.0000    0    12.011   -2.679662   -6.539314   -0.008257
  15 C     6.0000    0    12.011   -3.573100   -4.001621   -0.005127
  16 C     6.0000    0    12.011   -1.679624    5.094951    0.006445
  17 C     6.0000    0    12.011    0.152014    7.065614    0.009047
  18 C     6.0000    0    12.011    2.679872    6.539419    0.008500
  19 C     6.0000    0    12.011   -6.195833   -3.401362   -0.004507
  20 C     6.0000    0    12.011   -7.004368   -0.949303   -0.001437
  21 C     6.0000    0    12.011   -5.252864    1.093076    0.001229
  22 C     6.0000    0    12.011   -6.043940    3.664617    0.004412
  23 C     6.0000    0    12.011   -4.324173    5.590381    0.006924
  24 H     1.0000    0     1.008    7.562941    4.948509    0.006539
  25 H     1.0000    0     1.008    9.023442    0.519326    0.000846
  26 H     1.0000    0     1.008    8.066931   -4.076147   -0.004846
  27 H     1.0000    0     1.008    4.961710   -7.553617   -0.009168
  28 H     1.0000    0     1.008    0.503733   -9.022893   -0.011121
  29 H     1.0000    0     1.008   -4.061354   -8.073007   -0.010267
  30 H     1.0000    0     1.008   -0.503525    9.022997    0.011522
  31 H     1.0000    0     1.008    4.061565    8.073111    0.010586
  32 H     1.0000    0     1.008   -7.562730   -4.948405   -0.006568
  33 H     1.0000    0     1.008   -9.023231   -0.519222   -0.001010
  34 H     1.0000    0     1.008   -8.066721    4.076252    0.004792
  35 H     1.0000    0     1.008   -4.961500    7.553723    0.009336

--------------------------------
INTERNAL COORDINATES (ANGSTROEM)
--------------------------------
 C      0   0   0     0.000000000000     0.00000000     0.00000000
 C      1   0   0     1.426654444201     0.00000000     0.00000000
 C      2   1   0     1.426754622712   119.98640565     0.00000000
 C      3   2   1     1.426857709066   120.00687869     0.00000000
 C      4   3   2     1.426654103973   120.00672451     0.00000000
 C      5   4   3     1.426754434539   119.98639332     0.00000000
 C      1   2   3     1.412253455150   119.98875758   179.99824817
 C      7   1   2     1.423775856103   118.87101055     0.00000000
 C      8   7   1     1.366295747149   121.14043999     0.00000000
 C      2   1   3     1.412362332861   120.00162224   180.00062017
 C     10   2   1     1.423735971343   118.85185230   179.99796020
 C     11  10   2     1.366279037591   121.13485356     0.00000000
 C      3   2   1     1.412197458458   119.98775093   180.00211221
 C     13   3   2     1.423714366105   118.84626330   180.00002177
 C     14  13   3     1.366358440591   121.14730037     0.00000000
 C      4   3   2     1.412253505564   120.00448917   179.99860137
 C      6   5   4     1.412197327654   119.98776270   180.00022965
 C     17   6   5     1.423714304505   118.84628678   179.99898840
 C     18  17   6     1.366358559460   121.14728955     0.00000000
 C     16   4   3     1.423775692123   118.87097942   180.00120050
 C     20  16   4     1.366295733837   121.14044040     0.00000000
 C      5   4   3     1.412362216329   120.00163231   179.99932053
 C     22   5   4     1.423736044268   118.85185231   180.00078234
 C     23  22   5     1.366279114354   121.13485329     0.00000000
 H      8   7   1     1.092433970483   118.57120642   179.99998442
 H      9   8   7     1.092309102921   120.27534219   179.99971573
 H     11  10   2     1.092348659111   118.60194421   180.00096679
 H     12  11  10     1.092325361385   120.25005476   180.00121842
 H     14  13   3     1.092348631180   118.57806445   180.00155314
 H     15  14  13     1.092374889166   120.25672403   179.99808315
 H     18  17   6     1.092348599444   118.57804182   180.00072582
 H     19  18  17     1.092374872881   120.25676376   180.00201135
 H     20  16   4     1.092433952363   118.57121047   179.99838548
 H     21  20  16     1.092309092319   120.27532319   179.99970365
 H     23  22   5     1.092348670186   118.60193454   179.99843808
 H     24  23  22     1.092325269014   120.25007551   179.99947928

---------------------------
INTERNAL COORDINATES (A.U.)
---------------------------
 C      0   0   0     0.000000000000     0.00000000     0.00000000
 C      1   0   0     2.695986187282     0.00000000     0.00000000
 C      2   1   0     2.696175497232   119.98640565     0.00000000
 C      3   2   1     2.696370302210   120.00687869     0.00000000
 C      4   3   2     2.695985544343   120.00672451     0.00000000
 C      5   4   3     2.696175141637   119.98639332     0.00000000
 C      1   2   3     2.668772261918   119.98875758   179.99824817
 C      7   1   2     2.690546444124   118.87101055     0.00000000
 C      8   7   1     2.581924780054   121.14043999     0.00000000
 C      2   1   3     2.668978010972   120.00162224   180.00062017
 C     10   2   1     2.690471072851   118.85185230   179.99796020
 C     11  10   2     2.581893203565   121.13485356     0.00000000
 C      3   2   1     2.668666443504   119.98775093   180.00211221
 C     13   3   2     2.690430244868   118.84626330   180.00002177
 C     14  13   3     2.582043253489   121.14730037     0.00000000
 C      4   3   2     2.668772357185   120.00448917   179.99860137
 C      6   5   4     2.668666196321   119.98776270   180.00022965
 C     17   6   5     2.690430128460   118.84628678   179.99898840
 C     18  17   6     2.582043478119   121.14728955     0.00000000
 C     16   4   3     2.690546134246   118.87097942   180.00120050
 C     20  16   4     2.581924754897   121.14044040     0.00000000
 C      5   4   3     2.668977790760   120.00163231   179.99932053
 C     22   5   4     2.690471210660   118.85185231   180.00078234
 C     23  22   5     2.581893348626   121.13485329     0.00000000
 H      8   7   1     2.064401023606   118.57120642   179.99998442
 H      9   8   7     2.064165058110   120.27534219   179.99971573
 H     11  10   2     2.064239808476   118.60194421   180.00096679
 H     12  11  10     2.064195782154   120.25005476   180.00121842
 H     14  13   3     2.064239755694   118.57806445   180.00155314
 H     15  14  13     2.064289376095   120.25672403   179.99808315
 H     18  17   6     2.064239695721   118.57804182   180.00072582
 H     19  18  17     2.064289345322   120.25676376   180.00201135
 H     20  16   4     2.064400989364   118.57121047   179.99838548
 H     21  20  16     2.064165038076   120.27532319   179.99970365
 H     23  22   5     2.064239829404   118.60193454   179.99843808
 H     24  23  22     2.064195607599   120.25007551   179.99947928

---------------------
BASIS SET INFORMATION
---------------------
There are 2 groups of distinct atoms

 Group   1 Type C   : 15s8p3d2f1g contracted to 7s4p3d2f1g pattern {8211111/5111/111/11/1}
 Group   2 Type H   : 7s3p2d1f contracted to 4s3p2d1f pattern {4111/111/11/1}

Atom   0C    basis set group =>   1
Atom   1C    basis set group =>   1
Atom   2C    basis set group =>   1
Atom   3C    basis set group =>   1
Atom   4C    basis set group =>   1
Atom   5C    basis set group =>   1
Atom   6C    basis set group =>   1
Atom   7C    basis set group =>   1
Atom   8C    basis set group =>   1
Atom   9C    basis set group =>   1
Atom  10C    basis set group =>   1
Atom  11C    basis set group =>   1
Atom  12C    basis set group =>   1
Atom  13C    basis set group =>   1
Atom  14C    basis set group =>   1
Atom  15C    basis set group =>   1
Atom  16C    basis set group =>   1
Atom  17C    basis set group =>   1
Atom  18C    basis set group =>   1
Atom  19C    basis set group =>   1
Atom  20C    basis set group =>   1
Atom  21C    basis set group =>   1
Atom  22C    basis set group =>   1
Atom  23C    basis set group =>   1
Atom  24H    basis set group =>   2
Atom  25H    basis set group =>   2
Atom  26H    basis set group =>   2
Atom  27H    basis set group =>   2
Atom  28H    basis set group =>   2
Atom  29H    basis set group =>   2
Atom  30H    basis set group =>   2
Atom  31H    basis set group =>   2
Atom  32H    basis set group =>   2
Atom  33H    basis set group =>   2
Atom  34H    basis set group =>   2
Atom  35H    basis set group =>   2
---------------------------------
AUXILIARY/C BASIS SET INFORMATION
---------------------------------
There are 2 groups of distinct atoms

 Group   1 Type C   : 9s8p7d5f3g1h contracted to 9s8p7d5f3g1h pattern {111111111/11111111/1111111/11111/111/1}
 Group   2 Type H   : 6s4p3d2f1g contracted to 6s4p3d2f1g pattern {111111/1111/111/11/1}

Atom   0C    basis set group =>   1
Atom   1C    basis set group =>   1
Atom   2C    basis set group =>   1
Atom   3C    basis set group =>   1
Atom   4C    basis set group =>   1
Atom   5C    basis set group =>   1
Atom   6C    basis set group =>   1
Atom   7C    basis set group =>   1
Atom   8C    basis set group =>   1
Atom   9C    basis set group =>   1
Atom  10C    basis set group =>   1
Atom  11C    basis set group =>   1
Atom  12C    basis set group =>   1
Atom  13C    basis set group =>   1
Atom  14C    basis set group =>   1
Atom  15C    basis set group =>   1
Atom  16C    basis set group =>   1
Atom  17C    basis set group =>   1
Atom  18C    basis set group =>   1
Atom  19C    basis set group =>   1
Atom  20C    basis set group =>   1
Atom  21C    basis set group =>   1
Atom  22C    basis set group =>   1
Atom  23C    basis set group =>   1
Atom  24H    basis set group =>   2
Atom  25H    basis set group =>   2
Atom  26H    basis set group =>   2
Atom  27H    basis set group =>   2
Atom  28H    basis set group =>   2
Atom  29H    basis set group =>   2
Atom  30H    basis set group =>   2
Atom  31H    basis set group =>   2
Atom  32H    basis set group =>   2
Atom  33H    basis set group =>   2
Atom  34H    basis set group =>   2
Atom  35H    basis set group =>   2
----------------------------------
AUXILIARY/JK BASIS SET INFORMATION
----------------------------------
There are 2 groups of distinct atoms

 Group   1 Type C   : 9s8p7d5f3g1h contracted to 9s8p7d5f3g1h pattern {111111111/11111111/1111111/11111/111/1}
 Group   2 Type H   : 6s4p3d2f1g contracted to 6s4p3d2f1g pattern {111111/1111/111/11/1}

Atom   0C    basis set group =>   1
Atom   1C    basis set group =>   1
Atom   2C    basis set group =>   1
Atom   3C    basis set group =>   1
Atom   4C    basis set group =>   1
Atom   5C    basis set group =>   1
Atom   6C    basis set group =>   1
Atom   7C    basis set group =>   1
Atom   8C    basis set group =>   1
Atom   9C    basis set group =>   1
Atom  10C    basis set group =>   1
Atom  11C    basis set group =>   1
Atom  12C    basis set group =>   1
Atom  13C    basis set group =>   1
Atom  14C    basis set group =>   1
Atom  15C    basis set group =>   1
Atom  16C    basis set group =>   1
Atom  17C    basis set group =>   1
Atom  18C    basis set group =>   1
Atom  19C    basis set group =>   1
Atom  20C    basis set group =>   1
Atom  21C    basis set group =>   1
Atom  22C    basis set group =>   1
Atom  23C    basis set group =>   1
Atom  24H    basis set group =>   2
Atom  25H    basis set group =>   2
Atom  26H    basis set group =>   2
Atom  27H    basis set group =>   2
Atom  28H    basis set group =>   2
Atom  29H    basis set group =>   2
Atom  30H    basis set group =>   2
Atom  31H    basis set group =>   2
Atom  32H    basis set group =>   2
Atom  33H    basis set group =>   2
Atom  34H    basis set group =>   2
Atom  35H    basis set group =>   2


           ************************************************************
           *        Program running with 104 parallel MPI-processes   *
           *              working on a common directory               *
           ************************************************************
------------------------------------------------------------------------------
                             ORCA STARTUP CALCULATIONS
                           -- RI-GTO INTEGRALS CHOSEN --
------------------------------------------------------------------------------
------------------------------------------------------------------------------
                   ___                                                        
                  /   \      - P O W E R E D   B Y -                         
                 /     \                                                     
                 |  |  |   _    _      __       _____    __    __             
                 |  |  |  | |  | |    /  \     |  _  \  |  |  /  |          
                  \  \/   | |  | |   /    \    | | | |  |  | /  /          
                 / \  \   | |__| |  /  /\  \   | |_| |  |  |/  /          
                |  |  |   |  __  | /  /__\  \  |    /   |      \           
                |  |  |   | |  | | |   __   |  |    \   |  |\   \          
                \     /   | |  | | |  |  |  |  | |\  \  |  | \   \       
                 \___/    |_|  |_| |__|  |__|  |_| \__\ |__|  \__/        
                                                                              
                      - O R C A' S   B I G   F R I E N D -                    
                                      &                                       
                       - I N T E G R A L  F E E D E R -                       
                                                                              
 v1 FN, 2020, v2 2021, v3 2022-2024                                           
------------------------------------------------------------------------------


----------------------
SHARK INTEGRAL PACKAGE
----------------------

Number of atoms                             ...     36
Number of basis functions                   ...   1728
Number of shells                            ...    528
Maximum angular momentum                    ...      4
Integral batch strategy                     ... SHARK/LIBINT Hybrid
RI-J (if used) integral strategy            ... SPLIT-RIJ (Revised 2003 algorithm where possible)
Printlevel                                  ...      1
Contraction scheme used                     ... SEGMENTED contraction
Prescreening option                         ... SCHWARTZ
   Thresh                                   ... 1.000e-10
   Tcut                                     ... 1.000e-11
   Tpresel                                  ... 1.000e-11 
Coulomb Range Separation                    ... NOT USED
Exchange Range Separation                   ... NOT USED
Multipole approximations                    ... NOT USED
Finite Nucleus Model                        ... NOT USED
CABS basis                                  ... NOT available
Auxiliary Coulomb fitting basis             ... NOT available
Auxiliary J/K fitting basis                 ... AVAILABLE
   # of basis functions in Aux-JK           ...   4056
   # of shells in Aux-JK                    ...    984
   Maximum angular momentum in Aux-JK       ...      5
Auxiliary Correlation fitting basis         ... AVAILABLE
   # of basis functions in Aux-C            ...   4056
   # of shells in Aux-C                     ...    984
   Maximum angular momentum in Aux-C        ...      5
Auxiliary 'external' fitting basis          ... NOT available

Checking pre-screening integrals            ... done (  0.0 sec) Dimension = 528
Check shell pair data                       ... done (  0.0 sec)
Shell pair information
Shell pair cut-off parameter TPreSel        ...   1.0e-11
Total number of shell pairs                 ...    139656
Shell pairs after pre-screening             ...     88812
Total number of primitive shell pairs       ...    364386
Primitive shell pairs kept                  ...    159562
          la=0 lb=0:  13367 shell pairs
          la=1 lb=0:  19690 shell pairs
          la=1 lb=1:   6777 shell pairs
          la=2 lb=0:  12190 shell pairs
          la=2 lb=1:   8960 shell pairs
          la=2 lb=2:   2970 shell pairs
          la=3 lb=0:   7350 shell pairs
          la=3 lb=1:   5436 shell pairs
          la=3 lb=2:   3376 shell pairs
          la=3 lb=3:   1059 shell pairs
          la=4 lb=0:   2970 shell pairs
          la=4 lb=1:   2232 shell pairs
          la=4 lb=2:   1406 shell pairs
          la=4 lb=3:    840 shell pairs
          la=4 lb=4:    189 shell pairs

Calculating one electron integrals          ... done (  1.2 sec)
Calculating RI/JK V-Matrix + Cholesky decomp... done (  0.7 sec)
Calculating RI/C V-Matrix + Cholesky decomp.... done (  0.6 sec)
Calculating Nuclear repulsion               ... done (  0.0 sec) ENN=   1833.994930402722 Eh

Diagonalization of the overlap matrix:
Smallest eigenvalue                        ... 3.249e-08
Time for diagonalization                   ...    0.521 sec
Threshold for overlap eigenvalues          ... 1.000e-07
Number of eigenvalues below threshold      ... 1
Smallest eigenvalue above threshold        ... 1.829e-06

IMPORTANT:
Smallest eigenvalue of S below the DiffSThresh (1.000e-06) while
Thresh>1e-12 and/or TCut>1e-13! In order to avoid SCF convergence issues,
Thresh will be set to at least 1e-12 and TCut to at least 1e-13.
This can be turned off by adding %SCF DiffSThresh -1 END to the input.

Time for construction of square roots      ...    0.307 sec
Total time needed                          ...    0.861 sec

-------------------
DFT GRID GENERATION
-------------------

General Integration Accuracy     IntAcc      ... 4.959
Radial Grid Type                 RadialGrid  ... OptM3 with GC (2021)
Angular Grid (max. ang.)         AngularGrid ... 6 (Lebedev-590)
Angular grid pruning method      GridPruning ... 4 (adaptive)
Weight generation scheme         WeightScheme... mBecke (2022)
Basis function cutoff            BFCut       ... 1.0000e-10
Integration weight cutoff        WCut        ... 1.0000e-14
Partially contracted basis set               ... off
Rotationally invariant grid construction     ... off
Angular grids for H and He will be reduced by one unit
Diffuse basis detected: some atoms will have their outermost
                        angular grid increased by 1.

Total number of grid points                  ...   450154
Total number of batches                      ...     7052
Average number of points per batch           ...       63
Average number of grid points per atom       ...    12504
Initializing property integral containers    ... done (  0.0 sec)

SHARK setup successfully completed in   9.0 seconds

Maximum memory used throughout the entire STARTUP-calculation: 189.9 MB


           ************************************************************
           *        Program running with 104 parallel MPI-processes   *
           *              working on a common directory               *
           ************************************************************
-------------------------------------------------------------------------------
                                 ORCA GUESS
                   Start orbitals & Density for SCF / CASSCF
-------------------------------------------------------------------------------

------------
SCF SETTINGS
------------
Hamiltonian:
 Density Functional     Method          .... DFT(GTOs)
 Exchange Functional    Exchange        .... PBE
   PBE kappa parameter   XKappa         ....  0.804000
   PBE mue parameter    XMuePBE         ....  0.219520
 Correlation Functional Correlation     .... P86
 LDA part of GGA corr.  LDAOpt          .... VWN-5
 Gradients option       PostSCFGGA      .... off
 Hybrid DFT is turned on
   Fraction HF Exchange ScalHFX         ....  0.690000
   Scaling of DF-GGA-X  ScalDFX         ....  0.310000
   Scaling of DF-GGA-C  ScalDFC         ....  0.403800
   Scaling of DF-LDA-C  ScalLDAC        ....  0.403800
   Perturbative correction              ....  1.000000
 RI-approximation to the Coulomb term is turned on
   Number of AuxJK basis functions      .... 4056
   RI-JK (J+K treated both via RI)      .... on


General Settings:
 Integral files         IntName         .... compas3D_hc_c24h12_0pent_1_qz_riri
 Hartree-Fock type      HFTyp           .... RHF
 Total Charge           Charge          ....    0
 Multiplicity           Mult            ....    1
 Number of Electrons    NEL             ....  156
 Basis Dimension        Dim             .... 1728
 Nuclear Repulsion      ENuc            ....   1833.9949304027 Eh

Convergence Acceleration:
 AO-DIIS                CNVDIIS         .... on
   Start iteration      DIISMaxIt       ....    12
   Startup error        DIISStart       ....  0.200000
   # of expansion vecs  DIISMaxEq       ....     5
   Bias factor          DIISBfac        ....   1.050
   Max. coefficient     DIISMaxC        ....  10.000
 MO-DIIS                CNVKDIIS        .... off
 Trust-Rad. Augm. Hess. CNVTRAH         .... auto
   Auto Start mean grad. ratio tolernc. ....  1.125000
   Auto Start start iteration           ....    50
   Auto Start num. interpolation iter.  ....    10
   Max. Number of Micro iterations      ....    24
   Max. Number of Macro iterations      .... Maxiter - #DIIS iter
   Number of Davidson start vectors     ....     2
   Converg. threshold    (grad. norm)   ....   5.000e-05
   Grad. Scal. Fac. for Micro threshold ....   0.100
   Minimum threshold for Micro iter.    ....   1.000e-02
   NR start threshold (gradient norm)   ....   1.000e-04
   Initial trust radius                 ....   0.400
   Minimum AH scaling param. (alpha)    ....   1.000
   Maximum AH scaling param. (alpha)    .... 1000.000
   Quad. conv. algorithm                .... NR
   White noise on init. David. guess    .... on
   Maximum white noise                  ....   0.010
   Pseudo random numbers                .... off
   Inactive MOs                         .... canonical
   Orbital update algorithm             .... Taylor
   Preconditioner                       .... Diag
   Full preconditioner red. dimension   ....   250
 SOSCF                  CNVSOSCF        .... on
   Start iteration      SOSCFMaxIt      ....   150
   Startup grad/error   SOSCFStart      ....  0.003300
   Hessian update       SOSCFHessUp     .... L-BFGS
 Level Shifting         CNVShift        .... on
   Level shift para.    LevelShift      ....    0.2500
   Turn off err/grad.   ShiftErr        ....    0.0010
 Zerner damping         CNVZerner       .... off
 Static damping         CNVDamp         .... on
   Fraction old density DampFac         ....    0.7000
   Max. Damping (<1)    DampMax         ....    0.9800
   Min. Damping (>=0)   DampMin         ....    0.0000
   Turn off err/grad.   DampErr         ....    0.1000

SCF Procedure:
 Maximum # iterations   MaxIter         ....   125
 SCF integral mode      SCFMode         .... Direct
   Integral package                     .... SHARK and LIBINT hybrid scheme
 Reset frequency        DirectResetFreq ....    20
 Integral Threshold     Thresh          ....  1.000e-12 Eh
 Primitive CutOff       TCut            ....  1.000e-13 Eh

Convergence Tolerance:
 Convergence Check Mode ConvCheckMode   .... Total+1el-Energy
 Convergence forced     ConvForced      .... 0
 Energy Change          TolE            ....  1.000e-06 Eh
 1-El. energy change                    ....  1.000e-03 Eh
 Orbital Gradient       TolG            ....  5.000e-05
 Orbital Rotation angle TolX            ....  5.000e-05
 DIIS Error             TolErr          ....  1.000e-06

------------------------------
INITIAL GUESS: MODEL POTENTIAL
------------------------------
Loading Hartree-Fock densities                     ... done
Calculating cut-offs                               ... done
Initializing the effective Hamiltonian             ... done
Setting up the integral package (SHARK)            ... done
Starting the Coulomb interaction                   ... done (   0.3 sec)
Making the grid                                    ... done (   0.3 sec)
Mapping shells                                     ... done
Starting the XC term evaluation                    ... done (   0.1 sec)
  promolecular density results
     # of electrons  =    156.012347968
     EX              =   -126.413563596
     EC              =      0.200398345
     EX+EC           =   -126.213165251
Transforming the Hamiltonian                       ... done (   0.3 sec)
Diagonalizing the Hamiltonian                      ... done (   0.4 sec)
Back transforming the eigenvectors                 ... done (   0.2 sec)
Now organizing SCF variables                       ... done
                      ------------------
                      INITIAL GUESS DONE (   1.9 sec)
                      ------------------
             **** ENERGY FILE WAS UPDATED (compas3D_hc_c24h12_0pent_1_qz_riri.en.tmp) ****
Finished Guess after  18.7 sec
Maximum memory used throughout the entire GUESS-calculation: 191.4 MB


           ************************************************************
           *        Program running with 104 parallel MPI-processes   *
           *              working on a common directory               *
           ************************************************************

-------------------------------------------------------------------------------------------
                                      ORCA LEAN-SCF
                              memory conserving SCF solver
-------------------------------------------------------------------------------------------

----------------------------------------D-I-I-S--------------------------------------------
Iteration    Energy (Eh)           Delta-E    RMSDP     MaxDP     DIISErr   Damp  Time(sec)
-------------------------------------------------------------------------------------------
    1    -917.9611462574166580     0.00e+00  2.58e-04  2.25e-02  1.43e-01  0.700  13.7
    2    -917.8010715975347011     1.60e-01  2.22e-04  1.83e-02  1.29e-01  0.700  14.9
                               ***Turning on AO-DIIS***
    3    -917.8997758568175414    -9.87e-02  1.70e-04  1.52e-02  7.74e-02  0.700  12.9
    4    -918.0931284066396074    -1.93e-01  3.61e-04  4.16e-02  4.07e-02  0.000  13.8
    5    -918.4105809900938766    -3.17e-01  9.23e-05  9.24e-03  3.36e-02  0.000  13.0
    6    -918.4250519943088875    -1.45e-02  5.38e-05  6.13e-03  1.52e-02  0.000  13.8
    7    -918.4283908823485945    -3.34e-03  1.87e-05  1.63e-03  4.40e-03  0.000  13.3
                              *** Initializing SOSCF ***
---------------------------------------S-O-S-C-F--------------------------------------
Iteration    Energy (Eh)           Delta-E    RMSDP     MaxDP     MaxGrad    Time(sec)
--------------------------------------------------------------------------------------
    8    -918.4287095544236763    -3.19e-04  6.29e-06  4.85e-04  7.41e-04    14.9
    9    -918.4287315352717087    -2.20e-05  4.59e-06  3.47e-04  3.12e-04    12.2
   10    -918.4287356414056376    -4.11e-06  3.05e-06  2.11e-04  1.41e-04    13.0
   11    -918.4287363006442320    -6.59e-07  1.14e-06  8.07e-05  7.81e-05    12.6
                 **** Energy Check signals convergence ****

               *****************************************************
               *                     SUCCESS                       *
               *           SCF CONVERGED AFTER  11 CYCLES          *
               *****************************************************

             **** ENERGY FILE WAS UPDATED (compas3D_hc_c24h12_0pent_1_qz_riri.en.tmp) ****

----------------
TOTAL SCF ENERGY
----------------

Total Energy       :       -918.42873630064423 Eh          -24991.71647 eV

Components:
Nuclear Repulsion  :       1833.99493040272228 Eh           49905.53920 eV
Electronic Energy  :      -2752.42366670336651 Eh          -74897.25567 eV
One Electron Energy:      -4887.30005824897762 Eh         -132990.19568 eV
Two Electron Energy:       2134.87639154561111 Eh           58092.94000 eV

Virial components:
Potential Energy   :      -1834.12595193450807 Eh          -49909.10448 eV
Kinetic Energy     :        915.69721563386395 Eh           24917.38801 eV
Virial Ratio       :          2.00298299549255

DFT components:
N(Alpha)           :       77.999974190644 electrons
N(Beta)            :       77.999974190644 electrons
N(Total)           :      155.999948381289 electrons
E(X)               :      -39.813828793526 Eh       
E(C)               :       -2.332258760175 Eh       
E(XC)              :      -42.146087553700 Eh       

---------------
SCF CONVERGENCE
---------------

  Last Energy change         ...    6.5924e-07  Tolerance :   1.0000e-06
  Last MAX-Density change    ...    8.0716e-05  Tolerance :   1.0000e-05
  Last RMS-Density change    ...    1.1354e-06  Tolerance :   1.0000e-06
  Last DIIS Error            ...    7.4142e-04  Tolerance :   1.0000e-06
  Last Orbital Gradient      ...    7.8067e-05  Tolerance :   5.0000e-05
  Last Orbital Rotation      ...    1.5287e-04  Tolerance :   5.0000e-05


----------------
ORBITAL ENERGIES
----------------

  NO   OCC          E(Eh)            E(eV) 
   0   2.0000     -10.836261      -294.8696 
   1   2.0000     -10.835968      -294.8617 
   2   2.0000     -10.835959      -294.8614 
   3   2.0000     -10.835576      -294.8510 
   4   2.0000     -10.835560      -294.8506 
   5   2.0000     -10.835486      -294.8486 
   6   2.0000     -10.835077      -294.8374 
   7   2.0000     -10.835001      -294.8354 
   8   2.0000     -10.834984      -294.8349 
   9   2.0000     -10.834574      -294.8237 
  10   2.0000     -10.834566      -294.8235 
  11   2.0000     -10.834241      -294.8147 
  12   2.0000     -10.828460      -294.6574 
  13   2.0000     -10.828454      -294.6572 
  14   2.0000     -10.828432      -294.6566 
  15   2.0000     -10.828417      -294.6562 
  16   2.0000     -10.828403      -294.6558 
  17   2.0000     -10.828393      -294.6556 
  18   2.0000     -10.827298      -294.6258 
  19   2.0000     -10.827292      -294.6256 
  20   2.0000     -10.827271      -294.6250 
  21   2.0000     -10.827257      -294.6246 
  22   2.0000     -10.827243      -294.6243 
  23   2.0000     -10.827236      -294.6241 
  24   2.0000      -1.102652       -30.0047 
  25   2.0000      -1.060441       -28.8561 
  26   2.0000      -1.060431       -28.8558 
  27   2.0000      -1.005538       -27.3621 
  28   2.0000      -1.005528       -27.3618 
  29   2.0000      -0.985156       -26.8075 
  30   2.0000      -0.950111       -25.8538 
  31   2.0000      -0.932959       -25.3871 
  32   2.0000      -0.913553       -24.8590 
  33   2.0000      -0.913491       -24.8573 
  34   2.0000      -0.876096       -23.8398 
  35   2.0000      -0.876034       -23.8381 
  36   2.0000      -0.779573       -21.2133 
  37   2.0000      -0.779555       -21.2128 
  38   2.0000      -0.778439       -21.1824 
  39   2.0000      -0.778413       -21.1817 
  40   2.0000      -0.766863       -20.8674 
  41   2.0000      -0.695973       -18.9384 
  42   2.0000      -0.687590       -18.7103 
  43   2.0000      -0.665023       -18.0962 
  44   2.0000      -0.664976       -18.0949 
  45   2.0000      -0.656787       -17.8721 
  46   2.0000      -0.636601       -17.3228 
  47   2.0000      -0.587347       -15.9825 
  48   2.0000      -0.587294       -15.9811 
  49   2.0000      -0.571091       -15.5402 
  50   2.0000      -0.571056       -15.5392 
  51   2.0000      -0.567342       -15.4382 
  52   2.0000      -0.567309       -15.4373 
  53   2.0000      -0.533089       -14.5061 
  54   2.0000      -0.528041       -14.3687 
  55   2.0000      -0.526195       -14.3185 
  56   2.0000      -0.526166       -14.3177 
  57   2.0000      -0.521733       -14.1971 
  58   2.0000      -0.506631       -13.7861 
  59   2.0000      -0.506619       -13.7858 
  60   2.0000      -0.476916       -12.9775 
  61   2.0000      -0.476903       -12.9772 
  62   2.0000      -0.473592       -12.8871 
  63   2.0000      -0.470903       -12.8139 
  64   2.0000      -0.457857       -12.4589 
  65   2.0000      -0.455307       -12.3895 
  66   2.0000      -0.455267       -12.3885 
  67   2.0000      -0.409701       -11.1485 
  68   2.0000      -0.409693       -11.1483 
  69   2.0000      -0.406918       -11.0728 
  70   2.0000      -0.406868       -11.0714 
  71   2.0000      -0.388513       -10.5720 
  72   2.0000      -0.336761        -9.1637 
  73   2.0000      -0.324307        -8.8248 
  74   2.0000      -0.307808        -8.3759 
  75   2.0000      -0.307750        -8.3743 
  76   2.0000      -0.244997        -6.6667 
  77   2.0000      -0.244945        -6.6653 
  78   0.0000       0.005844         0.1590 
  79   0.0000       0.005875         0.1599 
  80   0.0000       0.049888         1.3575 
  81   0.0000       0.049893         1.3577 
  82   0.0000       0.067096         1.8258 
  83   0.0000       0.075505         2.0546 
  84   0.0000       0.080829         2.1995 
  85   0.0000       0.080834         2.1996 
  86   0.0000       0.093541         2.5454 
  87   0.0000       0.093548         2.5456 
  88   0.0000       0.105422         2.8687 
*Only the first 10 virtual orbitals were printed.
-------
TIMINGS
-------

Total SCF time: 0 days 0 hours 2 min 45 sec 

Total time                  ....     165.385 sec
Sum of individual times     ....     165.363 sec  (100.0%)

SCF preparation             ....      15.772 sec  (  9.5%)
Fock matrix formation       ....     129.463 sec  ( 78.3%)
  Startup                   ....       1.274 sec  (  1.0% of F)
  RI-JK                     ....     114.601 sec  ( 88.5% of F)
  XC integration            ....      11.029 sec  (  8.5% of F)
    XC Preparation          ....       0.000 sec  (  0.0% of XC)
    Basis function eval.    ....       0.780 sec  (  7.1% of XC)
    Density eval.           ....       1.961 sec  ( 17.8% of XC)
    XC-Functional eval.     ....       0.025 sec  (  0.2% of XC)
    XC-Potential eval.      ....       3.104 sec  ( 28.1% of XC)
Diagonalization             ....       0.000 sec  (  0.0%)
Density matrix formation    ....       2.575 sec  (  1.6%)
Total Energy calculation    ....       0.875 sec  (  0.5%)
Population analysis         ....       0.000 sec  (  0.0%)
Orbital Transformation      ....       2.290 sec  (  1.4%)
Orbital Orthonormalization  ....       0.000 sec  (  0.0%)
DIIS solution               ....      11.462 sec  (  6.9%)
SOSCF solution              ....       2.863 sec  (  1.7%)
Finished LeanSCF after 165.6 sec

Maximum memory used throughout the entire LEANSCF-calculation: 557.2 MB


           ************************************************************
           *        Program running with 104 parallel MPI-processes   *
           *              working on a common directory               *
           ************************************************************

------------------------------------------------------------------------------
                                ORCA  MP2 
------------------------------------------------------------------------------


-------------
RI-MP2 ENERGY
-------------
Dimension of the orbital basis            ... 1728
Dimension of the AuxC basis               ... 4056
Memory devoted to MP2                     ... 4096 MB   
Data format for matrix containers         ... DOUBLE
Compression type for matrix containers    ... UNCOMPRESSED
Scaling for aa/bb pairs                   ...   5.710e-02
Scaling for ab pairs                      ...   5.979e-01
Overall scaling of the MP2 energy         ...   1.000e+00

-----------------------
SHARK RI TRANSFORMATION
-----------------------

Number of basis functions                ...   1728
Number of aux functions                  ...   4056
Number of operators                      ...      1
Generation of IJK                        ... NO
Generation of IAK                        ... YES
Generation of ABK                        ... NO
Orbital Range Operator  0:    0-  77 to   78-1727

Aux basis identifier                     ...   AUXC
Contraction scheme used                  ... SEGMENTED
Do orthogonalization                     ... YES
All operator combinations                ... NO
Transpose (ia|K)                         ... NO
Integral generator used                  ... LIBINT
Starting integral generation + trafo... 
Half trafo (segmented) done. Total time =  4.9 sec. integrals=  1.2 sec trafo=  2.7 sec
Integral generation and half transformation done (  4.9 sec)

Reading or making V^(-1/2)          ... done (  0.3 sec)
Sorting IAK integrals               ... done (  6.5 sec)

SHARK RI integral transformation done. Total time = 11.8 sec.

Opening buffers                              ... done

Starting loop over batches of integrals:

Operator 0  - window                       ... (  0- 77)x( 78-1727)
Operator 0  - Memory available             ...  4096 MB
Operator 0  - Memory needed per MO         ...  51.1 MB
Operator 0  - Number of orbitals per batch ... 1
Operator 0  - Number of batches            ... 1

OPERATOR  0   PASS   0:  MOs     0 ...    0 +    1 ...    1 +    2 ...    2 +    3 ...    3
                            +    4 ...    4 +    5 ...    5 +    6 ...    6 +    7 ...    7
                            +    8 ...    8 +    9 ...    9 +   10 ...   10 +   11 ...   11
                            +   12 ...   12 +   13 ...   13 +   14 ...   14 +   15 ...   15
                            +   16 ...   16 +   17 ...   17 +   18 ...   18 +   19 ...   19
                            +   20 ...   20 +   21 ...   21 +   22 ...   22 +   23 ...   23
                            +   24 ...   24 +   25 ...   25 +   26 ...   26 +   27 ...   27
                            +   28 ...   28 +   29 ...   29 +   30 ...   30 +   31 ...   31
                            +   32 ...   32 +   33 ...   33 +   34 ...   34 +   35 ...   35
                            +   36 ...   36 +   37 ...   37 +   38 ...   38 +   39 ...   39
                            +   40 ...   40 +   41 ...   41 +   42 ...   42 +   43 ...   43
                            +   44 ...   44 +   45 ...   45 +   46 ...   46 +   47 ...   47
                            +   48 ...   48 +   49 ...   49 +   50 ...   50 +   51 ...   51
                            +   52 ...   52 +   53 ...   53 +   54 ...   54 +   55 ...   55
                            +   56 ...   56 +   57 ...   57 +   58 ...   58 +   59 ...   59
                            +   60 ...   60 +   61 ...   61 +   62 ...   62 +   63 ...   63
                            +   64 ...   64 +   65 ...   65 +   66 ...   66 +   67 ...   67
                            +   68 ...   68 +   69 ...   69 +   70 ...   70 +   71 ...   71
                            +   72 ...   72 +   73 ...   73 +   74 ...   74 +   75 ...   75
                            +   76 ...   76 +   77 ...   77
  Reading integrals       ... ok
Time spent in pair loops =    35.739 sec

-----------------------------------------------
 RI-MP2 CORRELATION ENERGY:     -2.347949329 Eh
-----------------------------------------------


-------
TIMINGS
-------

Total time                :   50.176 sec
Integral trafo            :   12.064 sec ( 24.0%)
I/O of integrals          :    0.068 sec (  0.1%)
K(i,j) operators          :    0.406 sec (  0.8%)
T(i,j) pair energies      :    0.069 sec (  0.1%)
V**(-1/2)                 :    2.371 sec (  4.7%)


---------------------------------------
MP2 TOTAL ENERGY:     -920.776685630 Eh
---------------------------------------

Maximum memory used throughout the entire MP2-calculation: 383.0 MB


-------------------------------------------------------------------------------
                          DFT DISPERSION CORRECTION                            
                                                                               
                                DFTD4 V3.4.0                                   
-------------------------------------------------------------------------------
The REV-DSD-PBEP86-2021 functional is recognized
A user input s6-coefficient scaling factor has been recognized
A user input a1-coefficient scaling factor has been recognized
A user input s8-coefficient scaling factor has been recognized
A user input a2-coefficient scaling factor has been recognized
A user input s9-coefficient scaling factor has been recognized
Active option DFTDOPT                   ...         5   

-------------------------   ----------------
Dispersion correction           -0.038622693
-------------------------   ----------------


-------------------------   --------------------
FINAL SINGLE POINT ENERGY      -920.815308322965
-------------------------   --------------------



           ************************************************************
           *        Program running with 104 parallel MPI-processes   *
           *              working on a common directory               *
           ************************************************************

------------------------------------------------------------------------------
                              ORCA PROPERTY CALCULATIONS
------------------------------------------------------------------------------

GBWName                                 ... compas3D_hc_c24h12_0pent_1_qz_riri.gbw
Number of atoms                         ...     36
Number of basis functions               ...   1728
Max core memory                         ...   1024 MB

Electric properties:
Dipole moment                           ... YES
Quadrupole moment                       ...  NO
Static polarizability (Dipole/Dipole)   ...  NO
Static polarizability (Dipole/Quad.)    ...  NO
Static polarizability (Quad./Quad.)     ...  NO
Static polarizability (Velocity)        ...  NO

Atomic electric properties:
Dipole moment                           ...  NO
Quadrupole moment                       ...  NO
Static polarizability                   ...  NO

Choice of electric origin               ... Center of mass
Position of electric origin             ...     0.000105     0.000053     0.000052

General magnetic properties:
Magnetizability                         ...  NO

EPR properties:
g-Tensor (aka g-matrix)                 ...  NO
Zero-Field splitting spin-orbit         ...  NO
Zero-field splitting spin-spin          ...  NO
Hyperfine couplings                     ...  NO (   0 nuclei)
Quadrupole couplings                    ...  NO (   0 nuclei)
Contact density                         ...  NO (   0 nuclei)

NMR properties:
Chemical shifts                         ...  NO (   0 nuclei)
Spin-rotation constants                 ...  NO (   0 nuclei)
Spin-spin couplings                     ...  NO (   0 nuclei,    0 pairs)

Choice of magnetic origin               ... GIAO
Position of magnetic origin             ...     0.000000     0.000000     0.000000

Properties with geometric perturbations:
SCF Hessian                             ...  NO
IR spectrum                             ...  NO
VCD spectrum                            ...  NO
X-ray spectroscopy properties:
SCF XES/XAS/RIXS spectra                ...  NO


-------------
DIPOLE MOMENT
-------------

Method             : SCF
Type of density    : Electron Density
Multiplicity       :   1
Irrep              :   0
Energy             :  -918.4287363006442320 Eh
Relativity type    : 
Basis              : AO
                                X                 Y                 Z
Electronic contribution:     -0.000000688       0.000001368      -0.000005437
Nuclear contribution   :      0.000000835      -0.000001620       0.000006811
                        -----------------------------------------
Total Dipole Moment    :      0.000000147      -0.000000252       0.000001374
                        -----------------------------------------
Magnitude (a.u.)       :      0.000001405
Magnitude (Debye)      :      0.000003570



--------------------
Rotational spectrum 
--------------------
 
Rotational constants in cm-1:             0.011164             0.011161             0.005581 
Rotational constants in MHz :           334.697028           334.587000           167.321002 

Dipole components along the rotational axes: 
x,y,z [a.u.] :     0.000000    -0.000000     0.000001 
x,y,z [Debye]:     0.000000    -0.000001     0.000003 

 

Dipole moment calculation done in   0.2 sec 

Maximum memory used throughout the entire PROP-calculation: 212.0 MB

--------------------------------
SUGGESTED CITATIONS FOR THIS RUN
--------------------------------

Below you find a list of papers that are relevant to this ORCA run
We neither can nor want to force you to cite these papers, but we appreciate if you do
You receive ORCA, which is the product of decades of hard work by many enthusiastic individuals, for free
The only thing we kindly ask in return is that you cite our papers,
We deeply appreciate it, if you show your appreciation for ORCA by not just citing the generic ORCA reference.

Please note that relegating all ORCA citations to the supporting information does *not* help us.
SI sections are not indexed - citations you put there will not count into any citation statistics
But we need these citations in order to attract the funding resources that allow us to do what we are doing

Therefore, if you are a happy ORCA user, please consider citing a few of the papers listed below in the main body of your paper

In addition to the list printed below, the program has created the file compas3D_hc_c24h12_0pent_1_qz_riri.bibtex that contains the list in bibtex format
You can import this file easily into all common literature databanks and citation aid programs


List of essential papers. We consider these as the minimum necessary citations

  1. Neese,F.
     Software update: the ORCA program system, version 5.0
     WIRES Comput. Molec. Sci., 2022 12(1)e1606
     doi.org/10.1002/wcms.1606

List of papers to cite with high priority. The work reported in these papers was absolutely
necessary for this run to complete.
Our perspective: the developers of density functionals and basis sets usually get cited in chemistry papers
Good! But without the algorithms to do something with them, the functionals or basis sets would not do anything.
Hence, in our opinion, the algorithm design and method developments papers are equally worthy of getting cited

  1. Neese,F.
     An improvement of the resolution of the identity approximation for the formation of the Coulomb matrix
     J. Comp. Chem., 2003 24(14)1740-1747
     doi.org/10.1002/jcc.10318
  2. Kossmann,S.; Neese,F.
     Comparison of two efficient approximate Hartee-Fock approaches
     Chem. Phys. Lett., 2009 481 240-243
     doi.org/10.1016/j.cplett.2009.09.073
  3. Neese,F.
     The SHARK Integral Generation and Digestion System
     J. Comp. Chem., 2022  1-16
     doi.org/10.1002/jcc.26942
  4. Caldeweyher,E.; Bannwarth,C.; Grimme,S.
     Extension of the D3 dispersion coefficient model
     J. Chem. Phys., 2017 147 034112
     doi.org/10.1063/1.4993215
  5. Caldeweyher,E.; Ehlert,S.; Hansen,A.; Neugebauer,H.; Spicher,S.; Bannwarth,C.; Grimme,S.
     A generally applicable atomic-charge dependent London dispersion correction
     J. Chem. Phys., 2019 150 154122
     doi.org/10.1063/1.5090222
  6. Caldeweyher,E.; Mewes,J.; Ehlert,S.; Grimme,S.
     Extension and evaluation of the D4 London-dispersion model for periodic systems
     Phys. Chem. Chem. Phys., 2020 22(16)8499-8512
     doi.org/10.1039/D0CP00502A
  7. Wittmann,L.; Gordiy,I.; Friede,M.; Helmich-Paris,B.; Grimme,S.; Hansen,A.; Bursch,M.
     Extension of the D3 and D4 London Dispersion Corrections to the full Actinides Series
     Phys. Chem. Chem. Phys., 2024 26(32)21379-21394
     doi.org/https://doi.org/10.1039/D4CP01514B 

List of suggested additional citations. These are papers that are important in the 'surrounding' of 
of this run, or papers that preceded the highly important papers. If you like your results we are grateful for a citation.

  1. Neese,F.
     The ORCA program system
     WIRES Comput. Molec. Sci., 2012 2(1)73-78
     doi.org/10.1002/wcms.81
  2. Neese,F.
     Software update: the ORCA program system, version 4.0
     WIRES Comput. Molec. Sci., 2018 8(1)1-6
     doi.org/10.1002/wcms.1327
  3. Neese,F.; Wennmohs,F.; Becker,U.; Riplinger,C.
     The ORCA quantum chemistry program package
     J. Chem. Phys., 2020 152 Art. No. L224108
     doi.org/10.1063/5.0004608

List of optional additional citations

  1. Neese,F.
     Approximate second-order SCF convergence for spin unrestricted wavefunctions
     Chem. Phys. Lett., 2000 325(1-3)93-98
     doi.org/10.1016/s0009-2614(00)00662-x

Timings for individual modules:

Sum of individual times          ...      301.324 sec (=   5.022 min)
Startup calculation              ...       25.530 sec (=   0.426 min)   8.5 %
SCF iterations                   ...      186.869 sec (=   3.114 min)  62.0 %
Property calculations            ...       21.297 sec (=   0.355 min)   7.1 %
MP2 module                       ...       67.628 sec (=   1.127 min)  22.4 %
                             ****ORCA TERMINATED NORMALLY****
TOTAL RUN TIME: 0 days 0 hours 5 minutes 25 seconds 575 msec
