
                                 *****************
                                 * O   R   C   A *
                                 *****************

                                            #,                                       
                                            ###                                      
                                            ####                                     
                                            #####                                    
                                            ######                                   
                                           ########,                                 
                                     ,,################,,,,,                         
                               ,,#################################,,                 
                          ,,##########################################,,             
                       ,#########################################, ''#####,          
                    ,#############################################,,   '####,        
                  ,##################################################,,,,####,       
                ,###########''''           ''''###############################       
              ,#####''   ,,,,##########,,,,          '''####'''          '####       
            ,##' ,,,,###########################,,,                        '##       
           ' ,,###''''                  '''############,,,                           
         ,,##''                                '''############,,,,        ,,,,,,###''
      ,#''                                            '''#######################'''  
     '                                                          ''''####''''         
             ,#######,   #######,   ,#######,      ##                                
            ,#'     '#,  ##    ##  ,#'     '#,    #''#        ,####,   ,####,        
            ##       ##  ##   ,#'  ##            #'  '#       #'       #'  '#        
            ##       ##  #######   ##           ,######,      #####,   #    #        
            '#,     ,#'  ##    ##  '#,     ,#' ,#      #,     #,   #   #,  ,#        
             '#######'   ##     ##  '#######'  #'      '#     '####' # '####'        



                #########################################################
                #                        -***-                          #
                #          Department of theory and spectroscopy        #
                #                                                       #
                #                      Frank Neese                      #
                #                                                       #
                #     Directorship, Architecture, Infrastructure        #
                #                    SHARK, DRIVERS                     #
                #        Core code/Algorithms in most modules           #
                #                                                       #
                #        Max Planck Institute fuer Kohlenforschung      #
                #                Kaiser Wilhelm Platz 1                 #
                #                 D-45470 Muelheim/Ruhr                 #
                #                      Germany                          #
                #                                                       #
                #                  All rights reserved                  #
                #                        -***-                          #
                #########################################################


                         Program Version 6.0.1  -  RELEASE   -


 With contributions from (in alphabetic order):
[Max-Planck-Institut fuer Kohlenforschung]                               
  Daniel Aravena         : Magnetic Suceptibility                        
  Michael Atanasov       : Ab Initio Ligand Field Theory (pilot matlab implementation)
  Alexander A. Auer      : GIAO ZORA, VPT2 properties, NMR spectrum      
  Ute Becker             : All parallelization in ORCA, NUMFREQ, NUMCALC 
  Giovanni Bistoni       : ED, misc. LED, open-shell LED, HFLD           
  Martin Brehm           : Molecular dynamics                            
  Dmytro Bykov           : pre 5.0 version of the SCF Hessian            
  Marcos Casanova-Páez   : Triplet and SCS-CIS(D). UHF-(DLPNO)-IP/EA/STEOM-CCSD. UHF-CVS-IP/STEOM-CCSD   
  Vijay G. Chilkuri      : MRCI spin determinant printing, contributions to CSF-ICE 
  Pauline Colinet        : FMM embedding                                 
  Dipayan Datta          : RHF DLPNO-CCSD density                        
  Achintya Kumar Dutta   : EOM-CC, STEOM-CC                              
  Nicolas Foglia         : Exact transition moments, OPA infrastructure, MCD improvements    
  Dmitry Ganyushin       : Spin-Orbit,Spin-Spin,Magnetic field MRCI      
  Miquel Garcia-Rates    : C-PCM and meta-GGA Hessian, CCSD/C-PCM, Gaussian charge scheme 
  Tiago L. C. Gouveia    : GS-ROHF, GS-ROCIS                             
  Yang Guo               : DLPNO-NEVPT2, F12-NEVPT2, CIM, IAO-localization        
  Andreas Hansen         : Spin unrestricted coupled pair/coupled cluster methods 
  Ingolf Harden          : AUTO-CI MPn and infrastructure                
  Benjamin Helmich-Paris : MC-RPA, TRAH-(SCF,CASSCF), AVAS, COSX integrals, SCF dyn. polar. 
  Lee Huntington         : MR-EOM, pCC                                   
  Robert Izsak           : Overlap fitted RIJCOSX, COSX-SCS-MP3, EOM     
  Riya Kayal             : Wick's Theorem for AUTO-CI, AUTO-CI UHF-CCSDT 
  Emily Kempfer          : AUTO-CI, RHF CISDT and CCSDT                  
  Christian Kollmar      : KDIIS, OOCD, Brueckner-CCSD(T), CCSD density, CASPT2, CASPT2-K, improved NEVPT2 
  Axel Koslowski         : Symmetry handling                             
  Simone Kossmann        : meta-GGA functionals, TD-DFT gradient, OOMP2, (MP2 Hessian; deprecated post 5.0) 
  Lucas Lang             : DCDCAS                                        
  Marvin Lechner         : AUTO-CI (C++ implementation), FIC-MRCC        
  Spencer Leger          : CASSCF response                               
  Dagmar Lenk            : GEPOL surface, SMD, ORCA-2-JSON               
  Dimitrios Liakos       : Extrapolation schemes; Compound Job, initial MDCI parallelization 
  Dimitrios Manganas     : Further ROCIS development; embedding schemes. LFT, Crystal Embedding 
  Dimitrios Pantazis     : SARC Basis sets                               
  Anastasios Papadopoulos: AUTO-CI, single reference methods and gradients 
  Taras Petrenko         : pre 6.0 DFT Hessian and TD-DFT gradient, (ASA, deprecated), ECA, 1-Electron XAS/XES, NRVS 
  Peter Pinski           : DLPNO-MP2, DLPNO-MP2 Gradient                 
  Christoph Reimann      : Effective Core Potentials                     
  Marius Retegan         : Local ZFS, SOC                                
  Christoph Riplinger    : Optimizer, TS searches, QM/MM, DLPNO-CCSD(T), (RO)-DLPNO pert. Triples 
  Michael Roemelt        : Original ROCIS implementation                 
  Masaaki Saitow         : Open-shell DLPNO-CCSD energy and density      
  Barbara Sandhoefer     : DKH picture change effects                    
  Kantharuban Sivalingam : CASSCF convergence/infrastructure, NEVPT2 and variants, FIC-MRCI 
  Bernardo de Souza      : ESD, SOC TD-DFT                               
  Georgi L. Stoychev     : AutoAux, RI-MP2 NMR, DLPNO-MP2 response, X2C  
  Van Anh Tran           : RI-MP2 g-tensors                              
  Willem Van den Heuvel  : Paramagnetic NMR                              
  Zikuan Wang            : NOTCH, Electric field optimization            
  Frank Wennmohs         : Technical directorship and infrastructure     
  Hang Xu                : AUTO-CI-Response properties                   
                                                                         
[FACCTs GmbH]                                                            
  Markus Bursch, Miquel Garcia-Rates, Christoph Riplinger, Bernardo de Souza, Georgi L. Stoychev 
                                                                 
  APM, Basis sets (HGBS, AHGBS, def-TZVP (Ac-Lr), def2-XVPD (La-Lu)), CI-OPT, improved COSX, DLPNO-Multilevel,           
  DOCKER, DRACO, updates on ESD, GOAT, IRC, LR-CPCM, MBIS, meta-GGA TD-DFT gradient, ML-optimized integration grids, 
  MM, NACMEs, nearIR, NEB, NEB-TS, NL-DFT gradient (VV10), 2- and 3-layer-ONIOM, interface openCOSMO-RS, QMMM,   
  Crystal-QMMM, SF, symmetry and pop. for TD-DFT, r2SCAN hybrids, SOLVATOR                                   
                                                                         
[Other institutions]                                                     
  V. Asgeirsson          : NEB                                           
  Christoph Bannwarth    : sTDA-DFT, sTD-DFT, PBEh-3c, B97-3c, D3        
  Sebastian Ehlert       : rSCAN, r2SCAN, r2SCAN-3c, D4, dhf basis sets  
  Marvin Friede          : D4 for Fr, Ra, Ac-Lr                          
  Lars Goerigk           : TD-DFT with DH, B97 family of functionals     
  Stefan Grimme          : VdW corrections, initial TS optimization, DFT functionals, gCP, sTDA/sTD-DF 
  Waldemar Hujo          : DFT-NL                                        
  H. Jonsson             : NEB                                           
  Holger Kruse           : gCP                                           
  Marcel Mueller         : wB97X-3c, vDZP basis set                      
  Hagen Neugebauer       : wr2SCAN                                       
  Tobias Risthaus        : range-separated hybrid DFT                    
  Lukas Wittmann         : regularized MP2, r2SCAN double-hybrids, wr2SCAN        
                                                                         
We gratefully acknowledge several colleagues who have allowed us to      
interface, adapt or use parts of their codes:                            
  Ed Valeev, F. Pavosevic, A. Kumar             : LibInt (2-el integral package), F12 methods 
  Garnet Chan, S. Sharma, J. Yang, R. Olivares  : DMRG                   
  Ulf Ekstrom                                   : XCFun DFT Library      
  Mihaly Kallay                                 : mrcc  (arbitrary order and MRCC methods)
  Frank Weinhold                                : gennbo (NPA and NBO analysis)           
  Simon Mueller                                 : openCOSMO-RS                            
  Christopher J. Cramer and Donald G. Truhlar   : smd solvation model                     
  S Lehtola, MJT Oliveira, MAL Marques          : LibXC Library                           
  Liviu Ungur et al                             : ANISO software                          


 Your calculation uses the libint2 library for the computation of 2-el integrals
 For citations please refer to: http://libint.valeyev.net

 Your ORCA version has been built with support for libXC version: 6.2.2
 For citations please refer to: https://libxc.gitlab.io

 This ORCA versions uses:
   CBLAS   interface :  Fast vector & matrix operations
   LAPACKE interface :  Fast linear algebra routines
   SCALAPACK package :  Parallel linear algebra routines
   Shared memory     :  Shared parallel matrices
   BLAS/LAPACK       :  OpenBLAS 0.3.27  USE64BITINT DYNAMIC_ARCH NO_AFFINITY SapphireRapids SINGLE_THREADED
        Core in use  :  SapphireRapids
   Copyright (c) 2011-2014, The OpenBLAS Project


Warning! Weird basis set assignment to AuxJK basis!


***************************************
The coordinates will be read from file: /g/data/kx58/rs2200/dhdft/inputs/compas3D-xyzs/hc_c32h14_0pent_1.xyz
***************************************


Your calculation utilizes the atom-pairwise dispersion correction
based on EEQ partial charges (D4)


================================================================================

----- Orbital basis set information -----
Your calculation utilizes the basis: def2-QZVPP
   F. Weigend and R. Ahlrichs, Phys. Chem. Chem. Phys. 7, 3297 (2005).

----- AuxC basis set information -----
Your calculation utilizes the auxiliary basis: def2-QZVPP/C
  H-La, Hf-Rn : A. Hellweg, C. Hattig, S. Hofener and W. Klopper, Theor. Chem. Acc. 117, 587 (2007).
        Ce-Lu : J. Chmela and M. E. Harding, Mol. Phys. (2018).

----- AuxJK basis set information -----
Your calculation utilizes the auxiliary basis: def2-QZVPP/C
  H-La, Hf-Rn : A. Hellweg, C. Hattig, S. Hofener and W. Klopper, Theor. Chem. Acc. 117, 587 (2007).
        Ce-Lu : J. Chmela and M. E. Harding, Mol. Phys. (2018).

================================================================================
                                        WARNINGS
                       Please study these warnings very carefully!
================================================================================


WARNING: No MP2 level density has been requested!
         To calculate MP2 level properties use
         %mp2 Density relaxed end
         or
         %mp2 Density unrelaxed end
         Otherwise for double-hybrid DFT only the energy is correct!

================================================================================
                                       INPUT FILE
================================================================================
NAME = compas3D_hc_c32h14_0pent_1_qz_riri.inp
|  1> ! RKS revDSD-PBEP86-D4/2021 defgrid3  RIJK NOPOP NoFrozencore NoUseSym
|  2> 
|  3> %basis
|  4> Basis "def2-QZVPP"
|  5> AuxJK "def2-QZVPP/C"
|  6> AuxC "def2-QZVPP/C"
|  7> end
|  8> 
|  9> %method
| 10> ScalHFX 0.69
| 11> ScalDFX 0.31
| 12> ScalDFC 0.4038
| 13> ScalLDAC 0.4038
| 14> 
| 15> D4S6 0.4612
| 16> D4S8 0.0
| 17> D4A1 0.44
| 18> D4A2 3.60
| 19> end
| 20> 
| 21> %mp2
| 22> PS 0.5979
| 23> PT 0.0571
| 24> 
| 25> end
| 26> 
| 27> %pal
| 28> nprocs 104
| 29> end
| 30> 
| 31> *XYZFILE 0 1 /g/data/kx58/rs2200/dhdft/inputs/compas3D-xyzs/hc_c32h14_0pent_1.xyz
| 32> 
| 33>                          ****END OF INPUT****
================================================================================

                       ****************************
                       * Single Point Calculation *
                       ****************************

---------------------------------
CARTESIAN COORDINATES (ANGSTROEM)
---------------------------------
  C     -0.635022   -0.335697    0.003289
  C      0.635152    0.335785   -0.003300
  C      1.831176   -0.415298   -0.008030
  C      1.779568   -1.843079   -0.006302
  C      0.521650   -2.508074    0.000247
  C     -0.687500   -1.747033    0.005060
  C     -1.831046    0.415385    0.008013
  C     -1.779437    1.843166    0.006258
  C     -0.521519    2.508161   -0.000283
  C      0.687631    1.747121   -0.005071
  C      1.948662    2.410263   -0.011649
  C      3.120684    1.649978   -0.016223
  C      3.089288    0.253353   -0.014553
  C      4.285892   -0.542105   -0.019242
  C      4.230765   -1.898613   -0.017627
  C      2.976151   -2.595779   -0.011105
  C      2.896620   -4.005353   -0.009318
  C      1.680081   -4.648517   -0.002953
  C      0.470221   -3.920780    0.001984
  C     -0.812378   -4.564970    0.008738
  C     -1.964668   -3.846906    0.013357
  C     -1.948531   -2.410176    0.011654
  C     -3.120553   -1.649891    0.016236
  C     -3.089158   -0.253266    0.014546
  C     -4.285762    0.542191    0.019216
  C     -4.230635    1.898700    0.017560
  C     -2.976021    2.595865    0.011027
  C     -2.896490    4.005439    0.009197
  C     -1.679950    4.648604    0.002842
  C     -0.470091    3.920867   -0.002046
  C      0.812508    4.565058   -0.008774
  C      1.964799    3.846993   -0.013355
  H      4.086689    2.160788   -0.021270
  H      5.249609   -0.028111   -0.024207
  H      5.150674   -2.487696   -0.021291
  H      3.822862   -4.584359   -0.013080
  H      1.637212   -5.740029   -0.001621
  H     -0.843317   -5.656923    0.010112
  H     -2.931960   -4.354127    0.018510
  H     -4.086558   -2.160702    0.021302
  H     -5.249478    0.028198    0.024196
  H     -5.150544    2.487782    0.021203
  H     -3.822733    4.584445    0.012920
  H     -1.637082    5.740116    0.001477
  H      0.843447    5.657010   -0.010159
  H      2.932091    4.354214   -0.018484

----------------------------
CARTESIAN COORDINATES (A.U.)
----------------------------
  NO LB      ZA    FRAG     MASS         X           Y           Z
   0 C     6.0000    0    12.011   -1.200018   -0.634375    0.006215
   1 C     6.0000    0    12.011    1.200263    0.634541   -0.006237
   2 C     6.0000    0    12.011    3.460421   -0.784799   -0.015175
   3 C     6.0000    0    12.011    3.362895   -3.482915   -0.011908
   4 C     6.0000    0    12.011    0.985776   -4.739573    0.000467
   5 C     6.0000    0    12.011   -1.299186   -3.301415    0.009561
   6 C     6.0000    0    12.011   -3.460175    0.784964    0.015142
   7 C     6.0000    0    12.011   -3.362649    3.483080    0.011826
   8 C     6.0000    0    12.011   -0.985529    4.739737   -0.000534
   9 C     6.0000    0    12.011    1.299434    3.301580   -0.009584
  10 C     6.0000    0    12.011    3.682438    4.554738   -0.022013
  11 C     6.0000    0    12.011    5.897238    3.118006   -0.030657
  12 C     6.0000    0    12.011    5.837909    0.478768   -0.027501
  13 C     6.0000    0    12.011    8.099162   -1.024430   -0.036362
  14 C     6.0000    0    12.011    7.994988   -3.587859   -0.033310
  15 C     6.0000    0    12.011    5.624111   -4.905311   -0.020986
  16 C     6.0000    0    12.011    5.473819   -7.569020   -0.017608
  17 C     6.0000    0    12.011    3.174892   -8.784424   -0.005581
  18 C     6.0000    0    12.011    0.888590   -7.409200    0.003750
  19 C     6.0000    0    12.011   -1.535171   -8.626544    0.016512
  20 C     6.0000    0    12.011   -3.712684   -7.269598    0.025240
  21 C     6.0000    0    12.011   -3.682189   -4.554572    0.022023
  22 C     6.0000    0    12.011   -5.896990   -3.117842    0.030681
  23 C     6.0000    0    12.011   -5.837663   -0.478604    0.027489
  24 C     6.0000    0    12.011   -8.098916    1.024593    0.036313
  25 C     6.0000    0    12.011   -7.994742    3.588022    0.033183
  26 C     6.0000    0    12.011   -5.623865    4.905475    0.020838
  27 C     6.0000    0    12.011   -5.473573    7.569184    0.017380
  28 C     6.0000    0    12.011   -3.174646    8.784588    0.005371
  29 C     6.0000    0    12.011   -0.888343    7.409364   -0.003867
  30 C     6.0000    0    12.011    1.535418    8.626709   -0.016581
  31 C     6.0000    0    12.011    3.712931    7.269764   -0.025238
  32 H     1.0000    0     1.008    7.722724    4.083298   -0.040195
  33 H     1.0000    0     1.008    9.920323   -0.053123   -0.045744
  34 H     1.0000    0     1.008    9.733364   -4.701063   -0.040233
  35 H     1.0000    0     1.008    7.224163   -8.663183   -0.024717
  36 H     1.0000    0     1.008    3.093883  -10.847083   -0.003064
  37 H     1.0000    0     1.008   -1.593638  -10.690035    0.019109
  38 H     1.0000    0     1.008   -5.540602   -8.228107    0.034978
  39 H     1.0000    0     1.008   -7.722476   -4.083134    0.040255
  40 H     1.0000    0     1.008   -9.920077    0.053286    0.045724
  41 H     1.0000    0     1.008   -9.733118    4.701227    0.040069
  42 H     1.0000    0     1.008   -7.223918    8.663346    0.024415
  43 H     1.0000    0     1.008   -3.093637   10.847247    0.002791
  44 H     1.0000    0     1.008    1.593883   10.690200   -0.019197
  45 H     1.0000    0     1.008    5.540850    8.228272   -0.034930

--------------------------------
INTERNAL COORDINATES (ANGSTROEM)
--------------------------------
 C      0   0   0     0.000000000000     0.00000000     0.00000000
 C      1   0   0     1.436757750267     0.00000000     0.00000000
 C      2   1   0     1.412310039266   120.00906640     0.00000000
 C      3   2   1     1.428714944006   120.05753439     0.00000000
 C      4   3   2     1.422890669020   119.93314581     0.00000000
 C      1   2   3     1.412312934658   119.99275680     0.00000000
 C      1   2   3     1.412309987631   120.00907220   180.00029053
 C      7   1   2     1.428714837727   120.05750573     0.00000000
 C      8   7   1     1.422890478573   119.93314413     0.00000000
 C      2   1   3     1.412313032410   119.99280581   179.99888012
 C     10   2   1     1.424781258596   119.86816345   180.00182654
 C     11  10   2     1.397029092889   119.29050018     0.00000000
 C     12  11  10     1.396978196142   121.68306087     0.00000000
 C     13  12  11     1.436883880105   122.32625240   179.99813012
 C     14  13  12     1.357628789132   121.28690049   180.00598866
 C      4   3   2     1.413644894785   120.10096964   179.99658741
 C     16   4   3     1.411817247289   118.94173720   180.00244312
 C     17  16   4     1.376106321641   121.09399306     0.00000000
 C     18  17  16     1.411873137507   121.10868334     0.00000000
 C     19  18  17     1.435300297828   122.30506807   180.00366583
 C     20  19  18     1.357722938067   121.40256835   180.00281995
 C      6   1   2     1.424781012177   119.86812656   179.99737060
 C     22   6   1     1.397029180557   119.29052148     0.00000000
 C     23  22   6     1.396978109146   121.68305423     0.00000000
 C     24  23  22     1.436883911557   122.32626748   180.00062712
 C     25  24  23     1.357628785785   121.28688520   179.99513176
 C      8   7   1     1.413644814152   120.10092165   180.00207694
 C     27   8   7     1.411817137414   118.94170278   179.99837041
 C     28  27   8     1.376106447968   121.09399281     0.00000000
 C     29  28  27     1.411873059783   121.10870430     0.00000000
 C     30  29  28     1.435300344701   122.30505067   179.99699617
 C     31  30  29     1.357722825443   121.40254894   179.99765014
 H     12  11  10     1.092757568554   119.15988759   179.99967591
 H     14  13  12     1.092229101560   118.31296638     0.00000000
 H     15  14  13     1.092366240026   120.30668973   179.99776806
 H     17  16   4     1.092330995276   118.78021172   179.99760486
 H     18  17  16     1.092354451742   120.11376998   180.00218003
 H     20  19  18     1.092391420324   118.29127536     0.00000000
 H     21  20  19     1.092224461771   120.39958549   180.00219113
 H     23  22   6     1.092757589170   119.15990704   180.00068108
 H     25  24  23     1.092229153483   118.31296878     0.00000000
 H     26  25  24     1.092366229198   120.30667418   180.00187309
 H     28  27   8     1.092331004807   118.78019696   180.00163745
 H     29  28  27     1.092354433654   120.11376572   179.99783434
 H     31  30  29     1.092391357698   118.29127664     0.00000000
 H     32  31  30     1.092224439753   120.39964385   179.99812861

---------------------------
INTERNAL COORDINATES (A.U.)
---------------------------
 C      0   0   0     0.000000000000     0.00000000     0.00000000
 C      1   0   0     2.715078668793     0.00000000     0.00000000
 C      2   1   0     2.668879190400   120.00906640     0.00000000
 C      3   2   1     2.699879967611   120.05753439     0.00000000
 C      4   3   2     2.688873682959   119.93314581     0.00000000
 C      1   2   3     2.668884661898   119.99275680     0.00000000
 C      1   2   3     2.668879092824   120.00907220   180.00029053
 C      7   1   2     2.699879766774   120.05750573     0.00000000
 C      8   7   1     2.688873323067   119.93314413     0.00000000
 C      2   1   3     2.668884846622   119.99280581   179.99888012
 C     10   2   1     2.692446379490   119.86816345   180.00182654
 C     11  10   2     2.640002386681   119.29050018     0.00000000
 C     12  11  10     2.639906205767   121.68306087     0.00000000
 C     13  12  11     2.715317019644   122.32625240   179.99813012
 C     14  13  12     2.565546602987   121.28690049   180.00598866
 C      4   3   2     2.671401701760   120.10096964   179.99658741
 C     16   4   3     2.667947948523   118.94173720   180.00244312
 C     17  16   4     2.600464079059   121.09399306     0.00000000
 C     18  17  16     2.668053565728   121.10868334     0.00000000
 C     19  18  17     2.712324482831   122.30506807   180.00366583
 C     20  19  18     2.565724518689   121.40256835   180.00281995
 C      6   1   2     2.692445913826   119.86812656   179.99737060
 C     22   6   1     2.640002552349   119.29052148     0.00000000
 C     23  22   6     2.639906041369   121.68305423     0.00000000
 C     24  23  22     2.715317079080   122.32626748   180.00062712
 C     25  24  23     2.565546596661   121.28688520   179.99513176
 C      8   7   1     2.671401549385   120.10092165   180.00207694
 C     27   8   7     2.667947740889   118.94170278   179.99837041
 C     28  27   8     2.600464317782   121.09399281     0.00000000
 C     29  28  27     2.668053418851   121.10870430     0.00000000
 C     30  29  28     2.712324571407   122.30505067   179.99699617
 C     31  30  29     2.565724305862   121.40254894   179.99765014
 H     12  11  10     2.065012535338   119.15988759   179.99967591
 H     14  13  12     2.064013877448   118.31296638     0.00000000
 H     15  14  13     2.064273031590   120.30668973   179.99776806
 H     17  16   4     2.064206428664   118.78021172   179.99760486
 H     18  17  16     2.064250754962   120.11376998   180.00218003
 H     20  19  18     2.064320615457   118.29127536     0.00000000
 H     21  20  19     2.064005109517   120.39958549   180.00219113
 H     23  22   6     2.065012574295   119.15990704   180.00068108
 H     25  24  23     2.064013975568   118.31296878     0.00000000
 H     26  25  24     2.064273011129   120.30667418   180.00187309
 H     28  27   8     2.064206446676   118.78019696   180.00163745
 H     29  28  27     2.064250720781   120.11376572   179.99783434
 H     31  30  29     2.064320497113   118.29127664     0.00000000
 H     32  31  30     2.064005067909   120.39964385   179.99812861

---------------------
BASIS SET INFORMATION
---------------------
There are 2 groups of distinct atoms

 Group   1 Type C   : 15s8p3d2f1g contracted to 7s4p3d2f1g pattern {8211111/5111/111/11/1}
 Group   2 Type H   : 7s3p2d1f contracted to 4s3p2d1f pattern {4111/111/11/1}

Atom   0C    basis set group =>   1
Atom   1C    basis set group =>   1
Atom   2C    basis set group =>   1
Atom   3C    basis set group =>   1
Atom   4C    basis set group =>   1
Atom   5C    basis set group =>   1
Atom   6C    basis set group =>   1
Atom   7C    basis set group =>   1
Atom   8C    basis set group =>   1
Atom   9C    basis set group =>   1
Atom  10C    basis set group =>   1
Atom  11C    basis set group =>   1
Atom  12C    basis set group =>   1
Atom  13C    basis set group =>   1
Atom  14C    basis set group =>   1
Atom  15C    basis set group =>   1
Atom  16C    basis set group =>   1
Atom  17C    basis set group =>   1
Atom  18C    basis set group =>   1
Atom  19C    basis set group =>   1
Atom  20C    basis set group =>   1
Atom  21C    basis set group =>   1
Atom  22C    basis set group =>   1
Atom  23C    basis set group =>   1
Atom  24C    basis set group =>   1
Atom  25C    basis set group =>   1
Atom  26C    basis set group =>   1
Atom  27C    basis set group =>   1
Atom  28C    basis set group =>   1
Atom  29C    basis set group =>   1
Atom  30C    basis set group =>   1
Atom  31C    basis set group =>   1
Atom  32H    basis set group =>   2
Atom  33H    basis set group =>   2
Atom  34H    basis set group =>   2
Atom  35H    basis set group =>   2
Atom  36H    basis set group =>   2
Atom  37H    basis set group =>   2
Atom  38H    basis set group =>   2
Atom  39H    basis set group =>   2
Atom  40H    basis set group =>   2
Atom  41H    basis set group =>   2
Atom  42H    basis set group =>   2
Atom  43H    basis set group =>   2
Atom  44H    basis set group =>   2
Atom  45H    basis set group =>   2
---------------------------------
AUXILIARY/C BASIS SET INFORMATION
---------------------------------
There are 2 groups of distinct atoms

 Group   1 Type C   : 9s8p7d5f3g1h contracted to 9s8p7d5f3g1h pattern {111111111/11111111/1111111/11111/111/1}
 Group   2 Type H   : 6s4p3d2f1g contracted to 6s4p3d2f1g pattern {111111/1111/111/11/1}

Atom   0C    basis set group =>   1
Atom   1C    basis set group =>   1
Atom   2C    basis set group =>   1
Atom   3C    basis set group =>   1
Atom   4C    basis set group =>   1
Atom   5C    basis set group =>   1
Atom   6C    basis set group =>   1
Atom   7C    basis set group =>   1
Atom   8C    basis set group =>   1
Atom   9C    basis set group =>   1
Atom  10C    basis set group =>   1
Atom  11C    basis set group =>   1
Atom  12C    basis set group =>   1
Atom  13C    basis set group =>   1
Atom  14C    basis set group =>   1
Atom  15C    basis set group =>   1
Atom  16C    basis set group =>   1
Atom  17C    basis set group =>   1
Atom  18C    basis set group =>   1
Atom  19C    basis set group =>   1
Atom  20C    basis set group =>   1
Atom  21C    basis set group =>   1
Atom  22C    basis set group =>   1
Atom  23C    basis set group =>   1
Atom  24C    basis set group =>   1
Atom  25C    basis set group =>   1
Atom  26C    basis set group =>   1
Atom  27C    basis set group =>   1
Atom  28C    basis set group =>   1
Atom  29C    basis set group =>   1
Atom  30C    basis set group =>   1
Atom  31C    basis set group =>   1
Atom  32H    basis set group =>   2
Atom  33H    basis set group =>   2
Atom  34H    basis set group =>   2
Atom  35H    basis set group =>   2
Atom  36H    basis set group =>   2
Atom  37H    basis set group =>   2
Atom  38H    basis set group =>   2
Atom  39H    basis set group =>   2
Atom  40H    basis set group =>   2
Atom  41H    basis set group =>   2
Atom  42H    basis set group =>   2
Atom  43H    basis set group =>   2
Atom  44H    basis set group =>   2
Atom  45H    basis set group =>   2
----------------------------------
AUXILIARY/JK BASIS SET INFORMATION
----------------------------------
There are 2 groups of distinct atoms

 Group   1 Type C   : 9s8p7d5f3g1h contracted to 9s8p7d5f3g1h pattern {111111111/11111111/1111111/11111/111/1}
 Group   2 Type H   : 6s4p3d2f1g contracted to 6s4p3d2f1g pattern {111111/1111/111/11/1}

Atom   0C    basis set group =>   1
Atom   1C    basis set group =>   1
Atom   2C    basis set group =>   1
Atom   3C    basis set group =>   1
Atom   4C    basis set group =>   1
Atom   5C    basis set group =>   1
Atom   6C    basis set group =>   1
Atom   7C    basis set group =>   1
Atom   8C    basis set group =>   1
Atom   9C    basis set group =>   1
Atom  10C    basis set group =>   1
Atom  11C    basis set group =>   1
Atom  12C    basis set group =>   1
Atom  13C    basis set group =>   1
Atom  14C    basis set group =>   1
Atom  15C    basis set group =>   1
Atom  16C    basis set group =>   1
Atom  17C    basis set group =>   1
Atom  18C    basis set group =>   1
Atom  19C    basis set group =>   1
Atom  20C    basis set group =>   1
Atom  21C    basis set group =>   1
Atom  22C    basis set group =>   1
Atom  23C    basis set group =>   1
Atom  24C    basis set group =>   1
Atom  25C    basis set group =>   1
Atom  26C    basis set group =>   1
Atom  27C    basis set group =>   1
Atom  28C    basis set group =>   1
Atom  29C    basis set group =>   1
Atom  30C    basis set group =>   1
Atom  31C    basis set group =>   1
Atom  32H    basis set group =>   2
Atom  33H    basis set group =>   2
Atom  34H    basis set group =>   2
Atom  35H    basis set group =>   2
Atom  36H    basis set group =>   2
Atom  37H    basis set group =>   2
Atom  38H    basis set group =>   2
Atom  39H    basis set group =>   2
Atom  40H    basis set group =>   2
Atom  41H    basis set group =>   2
Atom  42H    basis set group =>   2
Atom  43H    basis set group =>   2
Atom  44H    basis set group =>   2
Atom  45H    basis set group =>   2


           ************************************************************
           *        Program running with 104 parallel MPI-processes   *
           *              working on a common directory               *
           ************************************************************
------------------------------------------------------------------------------
                             ORCA STARTUP CALCULATIONS
                           -- RI-GTO INTEGRALS CHOSEN --
------------------------------------------------------------------------------
------------------------------------------------------------------------------
                   ___                                                        
                  /   \      - P O W E R E D   B Y -                         
                 /     \                                                     
                 |  |  |   _    _      __       _____    __    __             
                 |  |  |  | |  | |    /  \     |  _  \  |  |  /  |          
                  \  \/   | |  | |   /    \    | | | |  |  | /  /          
                 / \  \   | |__| |  /  /\  \   | |_| |  |  |/  /          
                |  |  |   |  __  | /  /__\  \  |    /   |      \           
                |  |  |   | |  | | |   __   |  |    \   |  |\   \          
                \     /   | |  | | |  |  |  |  | |\  \  |  | \   \       
                 \___/    |_|  |_| |__|  |__|  |_| \__\ |__|  \__/        
                                                                              
                      - O R C A' S   B I G   F R I E N D -                    
                                      &                                       
                       - I N T E G R A L  F E E D E R -                       
                                                                              
 v1 FN, 2020, v2 2021, v3 2022-2024                                           
------------------------------------------------------------------------------


----------------------
SHARK INTEGRAL PACKAGE
----------------------

Number of atoms                             ...     46
Number of basis functions                   ...   2244
Number of shells                            ...    684
Maximum angular momentum                    ...      4
Integral batch strategy                     ... SHARK/LIBINT Hybrid
RI-J (if used) integral strategy            ... SPLIT-RIJ (Revised 2003 algorithm where possible)
Printlevel                                  ...      1
Contraction scheme used                     ... SEGMENTED contraction
Prescreening option                         ... SCHWARTZ
   Thresh                                   ... 1.000e-10
   Tcut                                     ... 1.000e-11
   Tpresel                                  ... 1.000e-11 
Coulomb Range Separation                    ... NOT USED
Exchange Range Separation                   ... NOT USED
Multipole approximations                    ... NOT USED
Finite Nucleus Model                        ... NOT USED
CABS basis                                  ... NOT available
Auxiliary Coulomb fitting basis             ... NOT available
Auxiliary J/K fitting basis                 ... AVAILABLE
   # of basis functions in Aux-JK           ...   5296
   # of shells in Aux-JK                    ...   1280
   Maximum angular momentum in Aux-JK       ...      5
Auxiliary Correlation fitting basis         ... AVAILABLE
   # of basis functions in Aux-C            ...   5296
   # of shells in Aux-C                     ...   1280
   Maximum angular momentum in Aux-C        ...      5
Auxiliary 'external' fitting basis          ... NOT available

Checking pre-screening integrals            ... done (  0.0 sec) Dimension = 684
Check shell pair data                       ... done (  0.0 sec)
Shell pair information
Shell pair cut-off parameter TPreSel        ...   1.0e-11
Total number of shell pairs                 ...    234270
Shell pairs after pre-screening             ...    131221
Total number of primitive shell pairs       ...    617937
Primitive shell pairs kept                  ...    232320
          la=0 lb=0:  19394 shell pairs
          la=1 lb=0:  29782 shell pairs
          la=1 lb=1:  10452 shell pairs
          la=2 lb=0:  17532 shell pairs
          la=2 lb=1:  13500 shell pairs
          la=2 lb=2:   4280 shell pairs
          la=3 lb=0:  10576 shell pairs
          la=3 lb=1:   8114 shell pairs
          la=3 lb=2:   4852 shell pairs
          la=3 lb=3:   1462 shell pairs
          la=4 lb=0:   4336 shell pairs
          la=4 lb=1:   3412 shell pairs
          la=4 lb=2:   2058 shell pairs
          la=4 lb=3:   1200 shell pairs
          la=4 lb=4:    271 shell pairs

Calculating one electron integrals          ... done (  1.1 sec)
Calculating RI/JK V-Matrix + Cholesky decomp... done (  1.3 sec)
Calculating RI/C V-Matrix + Cholesky decomp.... done (  1.1 sec)
Calculating Nuclear repulsion               ... done (  0.0 sec) ENN=   2860.058101870375 Eh

Diagonalization of the overlap matrix:
Smallest eigenvalue                        ... 2.277e-08
Time for diagonalization                   ...    0.801 sec
Threshold for overlap eigenvalues          ... 1.000e-07
Number of eigenvalues below threshold      ... 2
Smallest eigenvalue above threshold        ... 1.411e-06

IMPORTANT:
Smallest eigenvalue of S below the DiffSThresh (1.000e-06) while
Thresh>1e-12 and/or TCut>1e-13! In order to avoid SCF convergence issues,
Thresh will be set to at least 1e-12 and TCut to at least 1e-13.
This can be turned off by adding %SCF DiffSThresh -1 END to the input.

Time for construction of square roots      ...    0.521 sec
Total time needed                          ...    1.377 sec

-------------------
DFT GRID GENERATION
-------------------

General Integration Accuracy     IntAcc      ... 4.959
Radial Grid Type                 RadialGrid  ... OptM3 with GC (2021)
Angular Grid (max. ang.)         AngularGrid ... 6 (Lebedev-590)
Angular grid pruning method      GridPruning ... 4 (adaptive)
Weight generation scheme         WeightScheme... mBecke (2022)
Basis function cutoff            BFCut       ... 1.0000e-10
Integration weight cutoff        WCut        ... 1.0000e-14
Partially contracted basis set               ... off
Rotationally invariant grid construction     ... off
Angular grids for H and He will be reduced by one unit
Diffuse basis detected: some atoms will have their outermost
                        angular grid increased by 1.

Total number of grid points                  ...   580409
Total number of batches                      ...     9092
Average number of points per batch           ...       63
Average number of grid points per atom       ...    12618
Initializing property integral containers    ... done (  0.0 sec)

SHARK setup successfully completed in  12.9 seconds

Maximum memory used throughout the entire STARTUP-calculation: 262.8 MB


           ************************************************************
           *        Program running with 104 parallel MPI-processes   *
           *              working on a common directory               *
           ************************************************************
-------------------------------------------------------------------------------
                                 ORCA GUESS
                   Start orbitals & Density for SCF / CASSCF
-------------------------------------------------------------------------------

------------
SCF SETTINGS
------------
Hamiltonian:
 Density Functional     Method          .... DFT(GTOs)
 Exchange Functional    Exchange        .... PBE
   PBE kappa parameter   XKappa         ....  0.804000
   PBE mue parameter    XMuePBE         ....  0.219520
 Correlation Functional Correlation     .... P86
 LDA part of GGA corr.  LDAOpt          .... VWN-5
 Gradients option       PostSCFGGA      .... off
 Hybrid DFT is turned on
   Fraction HF Exchange ScalHFX         ....  0.690000
   Scaling of DF-GGA-X  ScalDFX         ....  0.310000
   Scaling of DF-GGA-C  ScalDFC         ....  0.403800
   Scaling of DF-LDA-C  ScalLDAC        ....  0.403800
   Perturbative correction              ....  1.000000
 RI-approximation to the Coulomb term is turned on
   Number of AuxJK basis functions      .... 5296
   RI-JK (J+K treated both via RI)      .... on


General Settings:
 Integral files         IntName         .... compas3D_hc_c32h14_0pent_1_qz_riri
 Hartree-Fock type      HFTyp           .... RHF
 Total Charge           Charge          ....    0
 Multiplicity           Mult            ....    1
 Number of Electrons    NEL             ....  206
 Basis Dimension        Dim             .... 2244
 Nuclear Repulsion      ENuc            ....   2860.0581018704 Eh

Convergence Acceleration:
 AO-DIIS                CNVDIIS         .... on
   Start iteration      DIISMaxIt       ....    12
   Startup error        DIISStart       ....  0.200000
   # of expansion vecs  DIISMaxEq       ....     5
   Bias factor          DIISBfac        ....   1.050
   Max. coefficient     DIISMaxC        ....  10.000
 MO-DIIS                CNVKDIIS        .... off
 Trust-Rad. Augm. Hess. CNVTRAH         .... auto
   Auto Start mean grad. ratio tolernc. ....  1.125000
   Auto Start start iteration           ....    50
   Auto Start num. interpolation iter.  ....    10
   Max. Number of Micro iterations      ....    24
   Max. Number of Macro iterations      .... Maxiter - #DIIS iter
   Number of Davidson start vectors     ....     2
   Converg. threshold    (grad. norm)   ....   5.000e-05
   Grad. Scal. Fac. for Micro threshold ....   0.100
   Minimum threshold for Micro iter.    ....   1.000e-02
   NR start threshold (gradient norm)   ....   1.000e-04
   Initial trust radius                 ....   0.400
   Minimum AH scaling param. (alpha)    ....   1.000
   Maximum AH scaling param. (alpha)    .... 1000.000
   Quad. conv. algorithm                .... NR
   White noise on init. David. guess    .... on
   Maximum white noise                  ....   0.010
   Pseudo random numbers                .... off
   Inactive MOs                         .... canonical
   Orbital update algorithm             .... Taylor
   Preconditioner                       .... Diag
   Full preconditioner red. dimension   ....   250
 SOSCF                  CNVSOSCF        .... on
   Start iteration      SOSCFMaxIt      ....   150
   Startup grad/error   SOSCFStart      ....  0.003300
   Hessian update       SOSCFHessUp     .... L-BFGS
 Level Shifting         CNVShift        .... on
   Level shift para.    LevelShift      ....    0.2500
   Turn off err/grad.   ShiftErr        ....    0.0010
 Zerner damping         CNVZerner       .... off
 Static damping         CNVDamp         .... on
   Fraction old density DampFac         ....    0.7000
   Max. Damping (<1)    DampMax         ....    0.9800
   Min. Damping (>=0)   DampMin         ....    0.0000
   Turn off err/grad.   DampErr         ....    0.1000

SCF Procedure:
 Maximum # iterations   MaxIter         ....   125
 SCF integral mode      SCFMode         .... Direct
   Integral package                     .... SHARK and LIBINT hybrid scheme
 Reset frequency        DirectResetFreq ....    20
 Integral Threshold     Thresh          ....  1.000e-12 Eh
 Primitive CutOff       TCut            ....  1.000e-13 Eh

Convergence Tolerance:
 Convergence Check Mode ConvCheckMode   .... Total+1el-Energy
 Convergence forced     ConvForced      .... 0
 Energy Change          TolE            ....  1.000e-06 Eh
 1-El. energy change                    ....  1.000e-03 Eh
 Orbital Gradient       TolG            ....  5.000e-05
 Orbital Rotation angle TolX            ....  5.000e-05
 DIIS Error             TolErr          ....  1.000e-06

------------------------------
INITIAL GUESS: MODEL POTENTIAL
------------------------------
Loading Hartree-Fock densities                     ... done
Calculating cut-offs                               ... done
Initializing the effective Hamiltonian             ... done
Setting up the integral package (SHARK)            ... done
Starting the Coulomb interaction                   ... done (   0.5 sec)
Making the grid                                    ... done (   0.4 sec)
Mapping shells                                     ... done
Starting the XC term evaluation                    ... done (   0.2 sec)
  promolecular density results
     # of electrons  =    205.977130668
     EX              =   -167.999564706
     EC              =      0.252486442
     EX+EC           =   -167.747078264
Transforming the Hamiltonian                       ... done (   0.4 sec)
Diagonalizing the Hamiltonian                      ... done (   0.5 sec)
Back transforming the eigenvectors                 ... done (   0.3 sec)
Now organizing SCF variables                       ... done
                      ------------------
                      INITIAL GUESS DONE (   3.0 sec)
                      ------------------
             **** ENERGY FILE WAS UPDATED (compas3D_hc_c32h14_0pent_1_qz_riri.en.tmp) ****
Finished Guess after  19.8 sec
Maximum memory used throughout the entire GUESS-calculation: 289.9 MB


           ************************************************************
           *        Program running with 104 parallel MPI-processes   *
           *              working on a common directory               *
           ************************************************************

-------------------------------------------------------------------------------------------
                                      ORCA LEAN-SCF
                              memory conserving SCF solver
-------------------------------------------------------------------------------------------

----------------------------------------D-I-I-S--------------------------------------------
Iteration    Energy (Eh)           Delta-E    RMSDP     MaxDP     DIISErr   Damp  Time(sec)
-------------------------------------------------------------------------------------------
    1    -1222.8107966920683793     0.00e+00  2.71e-04  3.90e-02  1.46e-01  0.700  26.3
    2    -1222.6139131686077235     1.97e-01  2.22e-04  2.06e-02  1.31e-01  0.700  28.5
                               ***Turning on AO-DIIS***
    3    -1222.7394011525339010    -1.25e-01  1.72e-04  1.66e-02  7.87e-02  0.700  25.9
    4    -1222.9778582825792910    -2.38e-01  4.00e-04  6.27e-02  4.07e-02  0.000  26.6
    5    -1223.3802511103040160    -4.02e-01  8.95e-05  1.36e-02  3.39e-02  0.000  27.1
    6    -1223.3987218458155439    -1.85e-02  5.14e-05  8.15e-03  1.57e-02  0.000  26.5
    7    -1223.4028414189720024    -4.12e-03  1.82e-05  2.66e-03  4.73e-03  0.000  26.9
                              *** Initializing SOSCF ***
---------------------------------------S-O-S-C-F--------------------------------------
Iteration    Energy (Eh)           Delta-E    RMSDP     MaxDP     MaxGrad    Time(sec)
--------------------------------------------------------------------------------------
    8    -1223.4032539292843467    -4.13e-04  6.06e-06  4.96e-04  9.69e-04    29.1
    9    -1223.4032892246950723    -3.53e-05  4.57e-06  4.01e-04  3.26e-04    24.9
   10    -1223.4032964487905701    -7.22e-06  3.33e-06  2.47e-04  2.22e-04    24.6
   11    -1223.4032975162981529    -1.07e-06  1.34e-06  1.07e-04  1.58e-04    25.5
   12    -1223.4032984032764944    -8.87e-07  4.52e-07  3.36e-05  1.44e-05    24.2
                 **** Energy Check signals convergence ****

               *****************************************************
               *                     SUCCESS                       *
               *           SCF CONVERGED AFTER  12 CYCLES          *
               *****************************************************

             **** ENERGY FILE WAS UPDATED (compas3D_hc_c32h14_0pent_1_qz_riri.en.tmp) ****

----------------
TOTAL SCF ENERGY
----------------

Total Energy       :      -1223.40329840327649 Eh          -33290.49621 eV

Components:
Nuclear Repulsion  :       2860.05810187037514 Eh           77826.13756 eV
Electronic Energy  :      -4083.46140027365163 Eh         -111116.63376 eV
One Electron Energy:      -7344.39874553953996 Eh         -199851.25011 eV
Two Electron Energy:       3260.93734526588833 Eh           88734.61635 eV

Virial components:
Potential Energy   :      -2443.21367854933487 Eh          -66483.22414 eV
Kinetic Energy     :       1219.81038014605815 Eh           33192.72793 eV
Virial Ratio       :          2.00294547276831

DFT components:
N(Alpha)           :      103.000004354202 electrons
N(Beta)            :      103.000004354202 electrons
N(Total)           :      206.000008708405 electrons
E(X)               :      -52.884377340473 Eh       
E(C)               :       -3.092946770118 Eh       
E(XC)              :      -55.977324110591 Eh       

---------------
SCF CONVERGENCE
---------------

  Last Energy change         ...    8.8698e-07  Tolerance :   1.0000e-06
  Last MAX-Density change    ...    3.3589e-05  Tolerance :   1.0000e-05
  Last RMS-Density change    ...    4.5211e-07  Tolerance :   1.0000e-06
  Last DIIS Error            ...    9.6856e-04  Tolerance :   1.0000e-06
  Last Orbital Gradient      ...    1.4396e-05  Tolerance :   5.0000e-05
  Last Orbital Rotation      ...    6.1433e-05  Tolerance :   5.0000e-05


----------------
ORBITAL ENERGIES
----------------

  NO   OCC          E(Eh)            E(eV) 
   0   2.0000     -10.838938      -294.9425 
   1   2.0000     -10.838300      -294.9251 
   2   2.0000     -10.837872      -294.9135 
   3   2.0000     -10.837859      -294.9131 
   4   2.0000     -10.837857      -294.9131 
   5   2.0000     -10.837795      -294.9114 
   6   2.0000     -10.837328      -294.8987 
   7   2.0000     -10.837314      -294.8983 
   8   2.0000     -10.836896      -294.8869 
   9   2.0000     -10.836814      -294.8847 
  10   2.0000     -10.836454      -294.8749 
  11   2.0000     -10.836440      -294.8745 
  12   2.0000     -10.836358      -294.8723 
  13   2.0000     -10.836324      -294.8714 
  14   2.0000     -10.836029      -294.8633 
  15   2.0000     -10.836001      -294.8626 
  16   2.0000     -10.835671      -294.8536 
  17   2.0000     -10.835645      -294.8529 
  18   2.0000     -10.829800      -294.6938 
  19   2.0000     -10.829799      -294.6938 
  20   2.0000     -10.829799      -294.6938 
  21   2.0000     -10.829799      -294.6938 
  22   2.0000     -10.829017      -294.6725 
  23   2.0000     -10.829017      -294.6725 
  24   2.0000     -10.828657      -294.6627 
  25   2.0000     -10.828656      -294.6627 
  26   2.0000     -10.828543      -294.6596 
  27   2.0000     -10.828542      -294.6596 
  28   2.0000     -10.828535      -294.6594 
  29   2.0000     -10.828534      -294.6594 
  30   2.0000     -10.827925      -294.6428 
  31   2.0000     -10.827925      -294.6428 
  32   2.0000      -1.110103       -30.2074 
  33   2.0000      -1.082141       -29.4465 
  34   2.0000      -1.069612       -29.1056 
  35   2.0000      -1.041188       -28.3322 
  36   2.0000      -1.034924       -28.1617 
  37   2.0000      -1.005276       -27.3549 
  38   2.0000      -0.990783       -26.9606 
  39   2.0000      -0.984820       -26.7983 
  40   2.0000      -0.964737       -26.2518 
  41   2.0000      -0.936786       -25.4912 
  42   2.0000      -0.929646       -25.2969 
  43   2.0000      -0.925518       -25.1846 
  44   2.0000      -0.907935       -24.7062 
  45   2.0000      -0.895032       -24.3551 
  46   2.0000      -0.879689       -23.9376 
  47   2.0000      -0.863417       -23.4948 
  48   2.0000      -0.793080       -21.5808 
  49   2.0000      -0.788667       -21.4607 
  50   2.0000      -0.787776       -21.4365 
  51   2.0000      -0.781880       -21.2760 
  52   2.0000      -0.779857       -21.2210 
  53   2.0000      -0.762301       -20.7433 
  54   2.0000      -0.717236       -19.5170 
  55   2.0000      -0.710697       -19.3391 
  56   2.0000      -0.699502       -19.0344 
  57   2.0000      -0.679346       -18.4859 
  58   2.0000      -0.665281       -18.1032 
  59   2.0000      -0.657541       -17.8926 
  60   2.0000      -0.654428       -17.8079 
  61   2.0000      -0.619911       -16.8686 
  62   2.0000      -0.612087       -16.6557 
  63   2.0000      -0.597287       -16.2530 
  64   2.0000      -0.597094       -16.2477 
  65   2.0000      -0.595712       -16.2102 
  66   2.0000      -0.582949       -15.8629 
  67   2.0000      -0.567821       -15.4512 
  68   2.0000      -0.550487       -14.9795 
  69   2.0000      -0.544045       -14.8042 
  70   2.0000      -0.541095       -14.7239 
  71   2.0000      -0.538295       -14.6477 
  72   2.0000      -0.536607       -14.6018 
  73   2.0000      -0.531505       -14.4630 
  74   2.0000      -0.526717       -14.3327 
  75   2.0000      -0.523057       -14.2331 
  76   2.0000      -0.513488       -13.9727 
  77   2.0000      -0.503518       -13.7014 
  78   2.0000      -0.502191       -13.6653 
  79   2.0000      -0.497261       -13.5312 
  80   2.0000      -0.490847       -13.3566 
  81   2.0000      -0.488057       -13.2807 
  82   2.0000      -0.479674       -13.0526 
  83   2.0000      -0.462987       -12.5985 
  84   2.0000      -0.462984       -12.5984 
  85   2.0000      -0.453888       -12.3509 
  86   2.0000      -0.451855       -12.2956 
  87   2.0000      -0.445716       -12.1285 
  88   2.0000      -0.444531       -12.0963 
  89   2.0000      -0.431886       -11.7522 
  90   2.0000      -0.412348       -11.2206 
  91   2.0000      -0.405518       -11.0347 
  92   2.0000      -0.400892       -10.9088 
  93   2.0000      -0.388309       -10.5664 
  94   2.0000      -0.382941       -10.4203 
  95   2.0000      -0.362169        -9.8551 
  96   2.0000      -0.328184        -8.9303 
  97   2.0000      -0.317531        -8.6405 
  98   2.0000      -0.312809        -8.5120 
  99   2.0000      -0.297079        -8.0839 
 100   2.0000      -0.281178        -7.6512 
 101   2.0000      -0.247673        -6.7395 
 102   2.0000      -0.220505        -6.0003 
 103   0.0000      -0.020449        -0.5565 
 104   0.0000       0.006679         0.1817 
 105   0.0000       0.032844         0.8937 
 106   0.0000       0.040044         1.0897 
 107   0.0000       0.057569         1.5665 
 108   0.0000       0.059692         1.6243 
 109   0.0000       0.074392         2.0243 
 110   0.0000       0.078681         2.1410 
 111   0.0000       0.078719         2.1420 
 112   0.0000       0.080242         2.1835 
 113   0.0000       0.088572         2.4102 
*Only the first 10 virtual orbitals were printed.
-------
TIMINGS
-------

Total SCF time: 0 days 0 hours 5 min 34 sec 

Total time                  ....     334.833 sec
Sum of individual times     ....     334.817 sec  (100.0%)

SCF preparation             ....      16.111 sec  (  4.8%)
Fock matrix formation       ....     278.650 sec  ( 83.2%)
  Startup                   ....       2.563 sec  (  0.9% of F)
  RI-JK                     ....     250.271 sec  ( 89.8% of F)
  XC integration            ....      19.467 sec  (  7.0% of F)
    XC Preparation          ....       0.000 sec  (  0.0% of XC)
    Basis function eval.    ....       1.337 sec  (  6.9% of XC)
    Density eval.           ....       3.694 sec  ( 19.0% of XC)
    XC-Functional eval.     ....       0.038 sec  (  0.2% of XC)
    XC-Potential eval.      ....       5.363 sec  ( 27.5% of XC)
Diagonalization             ....       0.000 sec  (  0.0%)
Density matrix formation    ....       5.662 sec  (  1.7%)
Total Energy calculation    ....       1.770 sec  (  0.5%)
Population analysis         ....       0.000 sec  (  0.0%)
Orbital Transformation      ....       3.922 sec  (  1.2%)
Orbital Orthonormalization  ....       0.000 sec  (  0.0%)
DIIS solution               ....      21.963 sec  (  6.6%)
SOSCF solution              ....       6.578 sec  (  2.0%)
Finished LeanSCF after 335.3 sec

Maximum memory used throughout the entire LEANSCF-calculation: 932.2 MB


           ************************************************************
           *        Program running with 104 parallel MPI-processes   *
           *              working on a common directory               *
           ************************************************************

------------------------------------------------------------------------------
                                ORCA  MP2 
------------------------------------------------------------------------------


-------------
RI-MP2 ENERGY
-------------
Dimension of the orbital basis            ... 2244
Dimension of the AuxC basis               ... 5296
Memory devoted to MP2                     ... 4096 MB   
Data format for matrix containers         ... DOUBLE
Compression type for matrix containers    ... UNCOMPRESSED
Scaling for aa/bb pairs                   ...   5.710e-02
Scaling for ab pairs                      ...   5.979e-01
Overall scaling of the MP2 energy         ...   1.000e+00

-----------------------
SHARK RI TRANSFORMATION
-----------------------

Number of basis functions                ...   2244
Number of aux functions                  ...   5296
Number of operators                      ...      1
Generation of IJK                        ... NO
Generation of IAK                        ... YES
Generation of ABK                        ... NO
Orbital Range Operator  0:    0- 102 to  103-2243

Aux basis identifier                     ...   AUXC
Contraction scheme used                  ... SEGMENTED
Do orthogonalization                     ... YES
All operator combinations                ... NO
Transpose (ia|K)                         ... NO
Integral generator used                  ... LIBINT
Starting integral generation + trafo... 
Half trafo (segmented) done. Total time = 10.3 sec. integrals=  2.3 sec trafo=  7.0 sec
Integral generation and half transformation done ( 10.3 sec)

Reading or making V^(-1/2)          ... done (  0.5 sec)
Sorting IAK integrals               ... done ( 16.3 sec)

SHARK RI integral transformation done. Total time = 27.2 sec.

Opening buffers                              ... done

Starting loop over batches of integrals:

Operator 0  - window                       ... (  0-102)x(103-2243)
Operator 0  - Memory available             ...  4096 MB
Operator 0  - Memory needed per MO         ...  86.5 MB
Operator 0  - Number of orbitals per batch ... 1
Operator 0  - Number of batches            ... 1

OPERATOR  0   PASS   0:  MOs     0 ...    0 +    1 ...    1 +    2 ...    2 +    3 ...    3
                            +    4 ...    4 +    5 ...    5 +    6 ...    6 +    7 ...    7
                            +    8 ...    8 +    9 ...    9 +   10 ...   10 +   11 ...   11
                            +   12 ...   12 +   13 ...   13 +   14 ...   14 +   15 ...   15
                            +   16 ...   16 +   17 ...   17 +   18 ...   18 +   19 ...   19
                            +   20 ...   20 +   21 ...   21 +   22 ...   22 +   23 ...   23
                            +   24 ...   24 +   25 ...   25 +   26 ...   26 +   27 ...   27
                            +   28 ...   28 +   29 ...   29 +   30 ...   30 +   31 ...   31
                            +   32 ...   32 +   33 ...   33 +   34 ...   34 +   35 ...   35
                            +   36 ...   36 +   37 ...   37 +   38 ...   38 +   39 ...   39
                            +   40 ...   40 +   41 ...   41 +   42 ...   42 +   43 ...   43
                            +   44 ...   44 +   45 ...   45 +   46 ...   46 +   47 ...   47
                            +   48 ...   48 +   49 ...   49 +   50 ...   50 +   51 ...   51
                            +   52 ...   52 +   53 ...   53 +   54 ...   54 +   55 ...   55
                            +   56 ...   56 +   57 ...   57 +   58 ...   58 +   59 ...   59
                            +   60 ...   60 +   61 ...   61 +   62 ...   62 +   63 ...   63
                            +   64 ...   64 +   65 ...   65 +   66 ...   66 +   67 ...   67
                            +   68 ...   68 +   69 ...   69 +   70 ...   70 +   71 ...   71
                            +   72 ...   72 +   73 ...   73 +   74 ...   74 +   75 ...   75
                            +   76 ...   76 +   77 ...   77 +   78 ...   78 +   79 ...   79
                            +   80 ...   80 +   81 ...   81 +   82 ...   82 +   83 ...   83
                            +   84 ...   84 +   85 ...   85 +   86 ...   86 +   87 ...   87
                            +   88 ...   88 +   89 ...   89 +   90 ...   90 +   91 ...   91
                            +   92 ...   92 +   93 ...   93 +   94 ...   94 +   95 ...   95
                            +   96 ...   96 +   97 ...   97 +   98 ...   98 +   99 ...   99
                            +  100 ...  100 +  101 ...  101 +  102 ...  102
  Reading integrals       ... ok
Time spent in pair loops =   103.882 sec

-----------------------------------------------
 RI-MP2 CORRELATION ENERGY:     -3.117713143 Eh
-----------------------------------------------


-------
TIMINGS
-------

Total time                :  135.639 sec
Integral trafo            :   27.628 sec ( 20.4%)
I/O of integrals          :    0.106 sec (  0.1%)
K(i,j) operators          :    0.940 sec (  0.7%)
T(i,j) pair energies      :    0.119 sec (  0.1%)
V**(-1/2)                 :    4.126 sec (  3.0%)


---------------------------------------
MP2 TOTAL ENERGY:    -1226.521011547 Eh
---------------------------------------

Maximum memory used throughout the entire MP2-calculation: 617.1 MB


-------------------------------------------------------------------------------
                          DFT DISPERSION CORRECTION                            
                                                                               
                                DFTD4 V3.4.0                                   
-------------------------------------------------------------------------------
The REV-DSD-PBEP86-2021 functional is recognized
A user input s6-coefficient scaling factor has been recognized
A user input a1-coefficient scaling factor has been recognized
A user input s8-coefficient scaling factor has been recognized
A user input a2-coefficient scaling factor has been recognized
A user input s9-coefficient scaling factor has been recognized
Active option DFTDOPT                   ...         5   

-------------------------   ----------------
Dispersion correction           -0.053680709
-------------------------   ----------------


-------------------------   --------------------
FINAL SINGLE POINT ENERGY     -1226.574692255972
-------------------------   --------------------



           ************************************************************
           *        Program running with 104 parallel MPI-processes   *
           *              working on a common directory               *
           ************************************************************

------------------------------------------------------------------------------
                              ORCA PROPERTY CALCULATIONS
------------------------------------------------------------------------------

GBWName                                 ... compas3D_hc_c32h14_0pent_1_qz_riri.gbw
Number of atoms                         ...     46
Number of basis functions               ...   2244
Max core memory                         ...   1024 MB

Electric properties:
Dipole moment                           ... YES
Quadrupole moment                       ...  NO
Static polarizability (Dipole/Dipole)   ...  NO
Static polarizability (Dipole/Quad.)    ...  NO
Static polarizability (Quad./Quad.)     ...  NO
Static polarizability (Velocity)        ...  NO

Atomic electric properties:
Dipole moment                           ...  NO
Quadrupole moment                       ...  NO
Static polarizability                   ...  NO

Choice of electric origin               ... Center of mass
Position of electric origin             ...     0.000123     0.000082    -0.000037

General magnetic properties:
Magnetizability                         ...  NO

EPR properties:
g-Tensor (aka g-matrix)                 ...  NO
Zero-Field splitting spin-orbit         ...  NO
Zero-field splitting spin-spin          ...  NO
Hyperfine couplings                     ...  NO (   0 nuclei)
Quadrupole couplings                    ...  NO (   0 nuclei)
Contact density                         ...  NO (   0 nuclei)

NMR properties:
Chemical shifts                         ...  NO (   0 nuclei)
Spin-rotation constants                 ...  NO (   0 nuclei)
Spin-spin couplings                     ...  NO (   0 nuclei,    0 pairs)

Choice of magnetic origin               ... GIAO
Position of magnetic origin             ...     0.000000     0.000000     0.000000

Properties with geometric perturbations:
SCF Hessian                             ...  NO
IR spectrum                             ...  NO
VCD spectrum                            ...  NO
X-ray spectroscopy properties:
SCF XES/XAS/RIXS spectra                ...  NO


-------------
DIPOLE MOMENT
-------------

Method             : SCF
Type of density    : Electron Density
Multiplicity       :   1
Irrep              :   0
Energy             : -1223.4032984032764944 Eh
Relativity type    : 
Basis              : AO
                                X                 Y                 Z
Electronic contribution:      0.000000530       0.000002139       0.000102931
Nuclear contribution   :     -0.000000754      -0.000002587      -0.000113442
                        -----------------------------------------
Total Dipole Moment    :     -0.000000224      -0.000000447      -0.000010511
                        -----------------------------------------
Magnitude (a.u.)       :      0.000010523
Magnitude (Debye)      :      0.000026747



--------------------
Rotational spectrum 
--------------------
 
Rotational constants in cm-1:             0.007966             0.004923             0.003043 
Rotational constants in MHz :           238.823735           147.587608            91.217363 

Dipole components along the rotational axes: 
x,y,z [a.u.] :     0.000000    -0.000000    -0.000011 
x,y,z [Debye]:     0.000001    -0.000001    -0.000027 

 

Dipole moment calculation done in   0.4 sec 

Maximum memory used throughout the entire PROP-calculation: 328.2 MB

--------------------------------
SUGGESTED CITATIONS FOR THIS RUN
--------------------------------

Below you find a list of papers that are relevant to this ORCA run
We neither can nor want to force you to cite these papers, but we appreciate if you do
You receive ORCA, which is the product of decades of hard work by many enthusiastic individuals, for free
The only thing we kindly ask in return is that you cite our papers,
We deeply appreciate it, if you show your appreciation for ORCA by not just citing the generic ORCA reference.

Please note that relegating all ORCA citations to the supporting information does *not* help us.
SI sections are not indexed - citations you put there will not count into any citation statistics
But we need these citations in order to attract the funding resources that allow us to do what we are doing

Therefore, if you are a happy ORCA user, please consider citing a few of the papers listed below in the main body of your paper

In addition to the list printed below, the program has created the file compas3D_hc_c32h14_0pent_1_qz_riri.bibtex that contains the list in bibtex format
You can import this file easily into all common literature databanks and citation aid programs


List of essential papers. We consider these as the minimum necessary citations

  1. Neese,F.
     Software update: the ORCA program system, version 5.0
     WIRES Comput. Molec. Sci., 2022 12(1)e1606
     doi.org/10.1002/wcms.1606

List of papers to cite with high priority. The work reported in these papers was absolutely
necessary for this run to complete.
Our perspective: the developers of density functionals and basis sets usually get cited in chemistry papers
Good! But without the algorithms to do something with them, the functionals or basis sets would not do anything.
Hence, in our opinion, the algorithm design and method developments papers are equally worthy of getting cited

  1. Neese,F.
     An improvement of the resolution of the identity approximation for the formation of the Coulomb matrix
     J. Comp. Chem., 2003 24(14)1740-1747
     doi.org/10.1002/jcc.10318
  2. Kossmann,S.; Neese,F.
     Comparison of two efficient approximate Hartee-Fock approaches
     Chem. Phys. Lett., 2009 481 240-243
     doi.org/10.1016/j.cplett.2009.09.073
  3. Neese,F.
     The SHARK Integral Generation and Digestion System
     J. Comp. Chem., 2022  1-16
     doi.org/10.1002/jcc.26942
  4. Caldeweyher,E.; Bannwarth,C.; Grimme,S.
     Extension of the D3 dispersion coefficient model
     J. Chem. Phys., 2017 147 034112
     doi.org/10.1063/1.4993215
  5. Caldeweyher,E.; Ehlert,S.; Hansen,A.; Neugebauer,H.; Spicher,S.; Bannwarth,C.; Grimme,S.
     A generally applicable atomic-charge dependent London dispersion correction
     J. Chem. Phys., 2019 150 154122
     doi.org/10.1063/1.5090222
  6. Caldeweyher,E.; Mewes,J.; Ehlert,S.; Grimme,S.
     Extension and evaluation of the D4 London-dispersion model for periodic systems
     Phys. Chem. Chem. Phys., 2020 22(16)8499-8512
     doi.org/10.1039/D0CP00502A
  7. Wittmann,L.; Gordiy,I.; Friede,M.; Helmich-Paris,B.; Grimme,S.; Hansen,A.; Bursch,M.
     Extension of the D3 and D4 London Dispersion Corrections to the full Actinides Series
     Phys. Chem. Chem. Phys., 2024 26(32)21379-21394
     doi.org/https://doi.org/10.1039/D4CP01514B 

List of suggested additional citations. These are papers that are important in the 'surrounding' of 
of this run, or papers that preceded the highly important papers. If you like your results we are grateful for a citation.

  1. Neese,F.
     The ORCA program system
     WIRES Comput. Molec. Sci., 2012 2(1)73-78
     doi.org/10.1002/wcms.81
  2. Neese,F.
     Software update: the ORCA program system, version 4.0
     WIRES Comput. Molec. Sci., 2018 8(1)1-6
     doi.org/10.1002/wcms.1327
  3. Neese,F.; Wennmohs,F.; Becker,U.; Riplinger,C.
     The ORCA quantum chemistry program package
     J. Chem. Phys., 2020 152 Art. No. L224108
     doi.org/10.1063/5.0004608

List of optional additional citations

  1. Neese,F.
     Approximate second-order SCF convergence for spin unrestricted wavefunctions
     Chem. Phys. Lett., 2000 325(1-3)93-98
     doi.org/10.1016/s0009-2614(00)00662-x

Timings for individual modules:

Sum of individual times          ...      558.128 sec (=   9.302 min)
Startup calculation              ...       29.281 sec (=   0.488 min)   5.2 %
SCF iterations                   ...      357.599 sec (=   5.960 min)  64.1 %
Property calculations            ...       17.751 sec (=   0.296 min)   3.2 %
MP2 module                       ...      153.497 sec (=   2.558 min)  27.5 %
                             ****ORCA TERMINATED NORMALLY****
TOTAL RUN TIME: 0 days 0 hours 9 minutes 34 seconds 968 msec
