
                                 *****************
                                 * O   R   C   A *
                                 *****************

                                            #,                                       
                                            ###                                      
                                            ####                                     
                                            #####                                    
                                            ######                                   
                                           ########,                                 
                                     ,,################,,,,,                         
                               ,,#################################,,                 
                          ,,##########################################,,             
                       ,#########################################, ''#####,          
                    ,#############################################,,   '####,        
                  ,##################################################,,,,####,       
                ,###########''''           ''''###############################       
              ,#####''   ,,,,##########,,,,          '''####'''          '####       
            ,##' ,,,,###########################,,,                        '##       
           ' ,,###''''                  '''############,,,                           
         ,,##''                                '''############,,,,        ,,,,,,###''
      ,#''                                            '''#######################'''  
     '                                                          ''''####''''         
             ,#######,   #######,   ,#######,      ##                                
            ,#'     '#,  ##    ##  ,#'     '#,    #''#        ,####,   ,####,        
            ##       ##  ##   ,#'  ##            #'  '#       #'       #'  '#        
            ##       ##  #######   ##           ,######,      #####,   #    #        
            '#,     ,#'  ##    ##  '#,     ,#' ,#      #,     #,   #   #,  ,#        
             '#######'   ##     ##  '#######'  #'      '#     '####' # '####'        



                #########################################################
                #                        -***-                          #
                #          Department of theory and spectroscopy        #
                #                                                       #
                #                      Frank Neese                      #
                #                                                       #
                #     Directorship, Architecture, Infrastructure        #
                #                    SHARK, DRIVERS                     #
                #        Core code/Algorithms in most modules           #
                #                                                       #
                #        Max Planck Institute fuer Kohlenforschung      #
                #                Kaiser Wilhelm Platz 1                 #
                #                 D-45470 Muelheim/Ruhr                 #
                #                      Germany                          #
                #                                                       #
                #                  All rights reserved                  #
                #                        -***-                          #
                #########################################################


                         Program Version 6.0.1  -  RELEASE   -


 With contributions from (in alphabetic order):
[Max-Planck-Institut fuer Kohlenforschung]                               
  Daniel Aravena         : Magnetic Suceptibility                        
  Michael Atanasov       : Ab Initio Ligand Field Theory (pilot matlab implementation)
  Alexander A. Auer      : GIAO ZORA, VPT2 properties, NMR spectrum      
  Ute Becker             : All parallelization in ORCA, NUMFREQ, NUMCALC 
  Giovanni Bistoni       : ED, misc. LED, open-shell LED, HFLD           
  Martin Brehm           : Molecular dynamics                            
  Dmytro Bykov           : pre 5.0 version of the SCF Hessian            
  Marcos Casanova-Páez   : Triplet and SCS-CIS(D). UHF-(DLPNO)-IP/EA/STEOM-CCSD. UHF-CVS-IP/STEOM-CCSD   
  Vijay G. Chilkuri      : MRCI spin determinant printing, contributions to CSF-ICE 
  Pauline Colinet        : FMM embedding                                 
  Dipayan Datta          : RHF DLPNO-CCSD density                        
  Achintya Kumar Dutta   : EOM-CC, STEOM-CC                              
  Nicolas Foglia         : Exact transition moments, OPA infrastructure, MCD improvements    
  Dmitry Ganyushin       : Spin-Orbit,Spin-Spin,Magnetic field MRCI      
  Miquel Garcia-Rates    : C-PCM and meta-GGA Hessian, CCSD/C-PCM, Gaussian charge scheme 
  Tiago L. C. Gouveia    : GS-ROHF, GS-ROCIS                             
  Yang Guo               : DLPNO-NEVPT2, F12-NEVPT2, CIM, IAO-localization        
  Andreas Hansen         : Spin unrestricted coupled pair/coupled cluster methods 
  Ingolf Harden          : AUTO-CI MPn and infrastructure                
  Benjamin Helmich-Paris : MC-RPA, TRAH-(SCF,CASSCF), AVAS, COSX integrals, SCF dyn. polar. 
  Lee Huntington         : MR-EOM, pCC                                   
  Robert Izsak           : Overlap fitted RIJCOSX, COSX-SCS-MP3, EOM     
  Riya Kayal             : Wick's Theorem for AUTO-CI, AUTO-CI UHF-CCSDT 
  Emily Kempfer          : AUTO-CI, RHF CISDT and CCSDT                  
  Christian Kollmar      : KDIIS, OOCD, Brueckner-CCSD(T), CCSD density, CASPT2, CASPT2-K, improved NEVPT2 
  Axel Koslowski         : Symmetry handling                             
  Simone Kossmann        : meta-GGA functionals, TD-DFT gradient, OOMP2, (MP2 Hessian; deprecated post 5.0) 
  Lucas Lang             : DCDCAS                                        
  Marvin Lechner         : AUTO-CI (C++ implementation), FIC-MRCC        
  Spencer Leger          : CASSCF response                               
  Dagmar Lenk            : GEPOL surface, SMD, ORCA-2-JSON               
  Dimitrios Liakos       : Extrapolation schemes; Compound Job, initial MDCI parallelization 
  Dimitrios Manganas     : Further ROCIS development; embedding schemes. LFT, Crystal Embedding 
  Dimitrios Pantazis     : SARC Basis sets                               
  Anastasios Papadopoulos: AUTO-CI, single reference methods and gradients 
  Taras Petrenko         : pre 6.0 DFT Hessian and TD-DFT gradient, (ASA, deprecated), ECA, 1-Electron XAS/XES, NRVS 
  Peter Pinski           : DLPNO-MP2, DLPNO-MP2 Gradient                 
  Christoph Reimann      : Effective Core Potentials                     
  Marius Retegan         : Local ZFS, SOC                                
  Christoph Riplinger    : Optimizer, TS searches, QM/MM, DLPNO-CCSD(T), (RO)-DLPNO pert. Triples 
  Michael Roemelt        : Original ROCIS implementation                 
  Masaaki Saitow         : Open-shell DLPNO-CCSD energy and density      
  Barbara Sandhoefer     : DKH picture change effects                    
  Kantharuban Sivalingam : CASSCF convergence/infrastructure, NEVPT2 and variants, FIC-MRCI 
  Bernardo de Souza      : ESD, SOC TD-DFT                               
  Georgi L. Stoychev     : AutoAux, RI-MP2 NMR, DLPNO-MP2 response, X2C  
  Van Anh Tran           : RI-MP2 g-tensors                              
  Willem Van den Heuvel  : Paramagnetic NMR                              
  Zikuan Wang            : NOTCH, Electric field optimization            
  Frank Wennmohs         : Technical directorship and infrastructure     
  Hang Xu                : AUTO-CI-Response properties                   
                                                                         
[FACCTs GmbH]                                                            
  Markus Bursch, Miquel Garcia-Rates, Christoph Riplinger, Bernardo de Souza, Georgi L. Stoychev 
                                                                 
  APM, Basis sets (HGBS, AHGBS, def-TZVP (Ac-Lr), def2-XVPD (La-Lu)), CI-OPT, improved COSX, DLPNO-Multilevel,           
  DOCKER, DRACO, updates on ESD, GOAT, IRC, LR-CPCM, MBIS, meta-GGA TD-DFT gradient, ML-optimized integration grids, 
  MM, NACMEs, nearIR, NEB, NEB-TS, NL-DFT gradient (VV10), 2- and 3-layer-ONIOM, interface openCOSMO-RS, QMMM,   
  Crystal-QMMM, SF, symmetry and pop. for TD-DFT, r2SCAN hybrids, SOLVATOR                                   
                                                                         
[Other institutions]                                                     
  V. Asgeirsson          : NEB                                           
  Christoph Bannwarth    : sTDA-DFT, sTD-DFT, PBEh-3c, B97-3c, D3        
  Sebastian Ehlert       : rSCAN, r2SCAN, r2SCAN-3c, D4, dhf basis sets  
  Marvin Friede          : D4 for Fr, Ra, Ac-Lr                          
  Lars Goerigk           : TD-DFT with DH, B97 family of functionals     
  Stefan Grimme          : VdW corrections, initial TS optimization, DFT functionals, gCP, sTDA/sTD-DF 
  Waldemar Hujo          : DFT-NL                                        
  H. Jonsson             : NEB                                           
  Holger Kruse           : gCP                                           
  Marcel Mueller         : wB97X-3c, vDZP basis set                      
  Hagen Neugebauer       : wr2SCAN                                       
  Tobias Risthaus        : range-separated hybrid DFT                    
  Lukas Wittmann         : regularized MP2, r2SCAN double-hybrids, wr2SCAN        
                                                                         
We gratefully acknowledge several colleagues who have allowed us to      
interface, adapt or use parts of their codes:                            
  Ed Valeev, F. Pavosevic, A. Kumar             : LibInt (2-el integral package), F12 methods 
  Garnet Chan, S. Sharma, J. Yang, R. Olivares  : DMRG                   
  Ulf Ekstrom                                   : XCFun DFT Library      
  Mihaly Kallay                                 : mrcc  (arbitrary order and MRCC methods)
  Frank Weinhold                                : gennbo (NPA and NBO analysis)           
  Simon Mueller                                 : openCOSMO-RS                            
  Christopher J. Cramer and Donald G. Truhlar   : smd solvation model                     
  S Lehtola, MJT Oliveira, MAL Marques          : LibXC Library                           
  Liviu Ungur et al                             : ANISO software                          


 Your calculation uses the libint2 library for the computation of 2-el integrals
 For citations please refer to: http://libint.valeyev.net

 Your ORCA version has been built with support for libXC version: 6.2.2
 For citations please refer to: https://libxc.gitlab.io

 This ORCA versions uses:
   CBLAS   interface :  Fast vector & matrix operations
   LAPACKE interface :  Fast linear algebra routines
   SCALAPACK package :  Parallel linear algebra routines
   Shared memory     :  Shared parallel matrices
   BLAS/LAPACK       :  OpenBLAS 0.3.27  USE64BITINT DYNAMIC_ARCH NO_AFFINITY SapphireRapids SINGLE_THREADED
        Core in use  :  SapphireRapids
   Copyright (c) 2011-2014, The OpenBLAS Project


Warning! Weird basis set assignment to AuxJK basis!


***************************************
The coordinates will be read from file: /g/data/kx58/rs2200/dhdft/inputs/compas3x-xyzs/hc_c40h22_0pent_1.xyz
***************************************


Your calculation utilizes the atom-pairwise dispersion correction
based on EEQ partial charges (D4)


================================================================================

----- Orbital basis set information -----
Your calculation utilizes the basis: def2-QZVPP
   F. Weigend and R. Ahlrichs, Phys. Chem. Chem. Phys. 7, 3297 (2005).

----- AuxC basis set information -----
Your calculation utilizes the auxiliary basis: def2-QZVPP/C
  H-La, Hf-Rn : A. Hellweg, C. Hattig, S. Hofener and W. Klopper, Theor. Chem. Acc. 117, 587 (2007).
        Ce-Lu : J. Chmela and M. E. Harding, Mol. Phys. (2018).

----- AuxJK basis set information -----
Your calculation utilizes the auxiliary basis: def2-QZVPP/C
  H-La, Hf-Rn : A. Hellweg, C. Hattig, S. Hofener and W. Klopper, Theor. Chem. Acc. 117, 587 (2007).
        Ce-Lu : J. Chmela and M. E. Harding, Mol. Phys. (2018).

================================================================================
                                        WARNINGS
                       Please study these warnings very carefully!
================================================================================


WARNING: No MP2 level density has been requested!
         To calculate MP2 level properties use
         %mp2 Density relaxed end
         or
         %mp2 Density unrelaxed end
         Otherwise for double-hybrid DFT only the energy is correct!

================================================================================
                                       INPUT FILE
================================================================================
NAME = compas3x_hc_c40h22_0pent_1_qz_riri.inp
|  1> ! RKS revDSD-PBEP86-D4/2021 defgrid3  RIJK NOPOP NoFrozencore NoUseSym
|  2> 
|  3> %basis
|  4> Basis "def2-QZVPP"
|  5> AuxJK "def2-QZVPP/C"
|  6> AuxC "def2-QZVPP/C"
|  7> end
|  8> 
|  9> %method
| 10> ScalHFX 0.69
| 11> ScalDFX 0.31
| 12> ScalDFC 0.4038
| 13> ScalLDAC 0.4038
| 14> 
| 15> D4S6 0.4612
| 16> D4S8 0.0
| 17> D4A1 0.44
| 18> D4A2 3.60
| 19> end
| 20> 
| 21> %mp2
| 22> PS 0.5979
| 23> PT 0.0571
| 24> 
| 25> end
| 26> 
| 27> %pal
| 28> nprocs 104
| 29> end
| 30> 
| 31> *XYZFILE 0 1 /g/data/kx58/rs2200/dhdft/inputs/compas3x-xyzs/hc_c40h22_0pent_1.xyz
| 32> 
| 33>                          ****END OF INPUT****
================================================================================

                       ****************************
                       * Single Point Calculation *
                       ****************************

---------------------------------
CARTESIAN COORDINATES (ANGSTROEM)
---------------------------------
  C      3.019622   -0.350025   -0.808407
  C      2.035644   -1.365057   -0.907213
  C      0.652621   -1.012625   -0.844459
  C      0.293427    0.322088   -0.621028
  C      1.279328    1.208747   -0.050807
  C      2.634696    0.946546   -0.296198
  C      4.338335   -0.664714   -1.140968
  C      4.685497   -1.945397   -1.514437
  C      3.740483   -2.955312   -1.527358
  C      2.411537   -2.693535   -1.208956
  C      1.399641   -3.737801   -1.187629
  C      0.034231   -3.394551   -1.122891
  C     -0.357369   -1.995421   -1.068789
  C     -1.666314   -1.581714   -1.173300
  C     -2.013144   -0.219710   -1.201608
  C     -1.013662    0.759855   -0.981880
  C      0.916004    2.339867    0.744350
  C      1.850017    3.391032    0.868775
  C      3.186551    3.166948    0.477866
  C      3.580981    1.952047    0.003530
  C      1.753227   -5.091599   -1.199685
  C      0.801487   -6.085176   -1.169277
  C     -0.543903   -5.747325   -1.115412
  C     -0.914606   -4.422350   -1.087252
  C     -3.337454    0.193960   -1.455999
  C     -3.648005    1.519636   -1.563076
  C     -2.633644    2.483017   -1.473636
  C     -1.347051    2.112116   -1.194793
  C     -0.350784    2.483119    1.401551
  C     -0.791565    3.778044    1.723061
  C      0.122227    4.861041    1.678659
  C      1.425500    4.650551    1.361278
  C     -1.186790    1.375263    1.767956
  C     -2.553016    1.611475    2.047703
  C     -3.020527    2.948865    2.147764
  C     -2.150035    3.985716    2.081812
  C     -0.693814    0.068497    1.931440
  C     -1.539877   -0.977860    2.192050
  C     -2.914791   -0.759173    2.318413
  C     -3.405694    0.518828    2.280330
  H      5.103786    0.094145   -1.121914
  H      5.707030   -2.166001   -1.788283
  H      4.048784   -3.945990   -1.820519
  H     -2.466667   -2.293685   -1.299284
  H      3.902979    3.966209    0.602326
  H      4.628280    1.778534   -0.183094
  H      2.793610   -5.375513   -1.210040
  H      1.101480   -7.122728   -1.176465
  H     -1.297130   -6.520800   -1.082786
  H     -1.963680   -4.183525   -1.016611
  H     -4.099065   -0.562294   -1.583455
  H     -4.664642    1.831364   -1.752859
  H     -2.872438    3.524042   -1.634272
  H     -0.569706    2.860368   -1.168555
  H     -0.229926    5.844234    1.956055
  H      2.151085    5.448565    1.425862
  H     -4.069795    3.115129    2.345175
  H     -2.479287    4.999029    2.263520
  H      0.370300   -0.105307    1.884899
  H     -1.143248   -1.975952    2.308180
  H     -3.577017   -1.595114    2.489873
  H     -4.455745    0.709376    2.451762

----------------------------
CARTESIAN COORDINATES (A.U.)
----------------------------
  NO LB      ZA    FRAG     MASS         X           Y           Z
   0 C     6.0000    0    12.011    5.706259   -0.661451   -1.527667
   1 C     6.0000    0    12.011    3.846809   -2.579583   -1.714383
   2 C     6.0000    0    12.011    1.233275   -1.913584   -1.595796
   3 C     6.0000    0    12.011    0.554498    0.608657   -1.173573
   4 C     6.0000    0    12.011    2.417580    2.284201   -0.096011
   5 C     6.0000    0    12.011    4.978854    1.788714   -0.559734
   6 C     6.0000    0    12.011    8.198264   -1.256127   -2.156116
   7 C     6.0000    0    12.011    8.854306   -3.676267   -2.861871
   8 C     6.0000    0    12.011    7.068489   -5.584730   -2.886289
   9 C     6.0000    0    12.011    4.557144   -5.090044   -2.284596
  10 C     6.0000    0    12.011    2.644938   -7.063419   -2.244294
  11 C     6.0000    0    12.011    0.064687   -6.414771   -2.121957
  12 C     6.0000    0    12.011   -0.675330   -3.770799   -2.019719
  13 C     6.0000    0    12.011   -3.148876   -2.989007   -2.217215
  14 C     6.0000    0    12.011   -3.804291   -0.415191   -2.270710
  15 C     6.0000    0    12.011   -1.915543    1.435917   -1.855485
  16 C     6.0000    0    12.011    1.730997    4.421708    1.406618
  17 C     6.0000    0    12.011    3.496025    6.408122    1.641746
  18 C     6.0000    0    12.011    6.021709    5.984665    0.903036
  19 C     6.0000    0    12.011    6.767074    3.688834    0.006671
  20 C     6.0000    0    12.011    3.313119   -9.621727   -2.267076
  21 C     6.0000    0    12.011    1.514591  -11.499316   -2.209614
  22 C     6.0000    0    12.011   -1.027828  -10.860870   -2.107823
  23 C     6.0000    0    12.011   -1.728355   -8.357031   -2.054609
  24 C     6.0000    0    12.011   -6.306873    0.366531   -2.751438
  25 C     6.0000    0    12.011   -6.893730    2.871696   -2.953785
  26 C     6.0000    0    12.011   -4.976866    4.692221   -2.784768
  27 C     6.0000    0    12.011   -2.545557    3.991321   -2.257832
  28 C     6.0000    0    12.011   -0.662886    4.692414    2.648548
  29 C     6.0000    0    12.011   -1.495840    7.139468    3.256114
  30 C     6.0000    0    12.011    0.230976    9.186036    3.172206
  31 C     6.0000    0    12.011    2.693804    8.788268    2.572443
  32 C     6.0000    0    12.011   -2.242708    2.598871    3.340953
  33 C     6.0000    0    12.011   -4.824501    3.045246    3.869598
  34 C     6.0000    0    12.011   -5.707969    5.572548    4.058686
  35 C     6.0000    0    12.011   -4.062978    7.531912    3.934054
  36 C     6.0000    0    12.011   -1.311119    0.129441    3.649894
  37 C     6.0000    0    12.011   -2.909945   -1.847888    4.142375
  38 C     6.0000    0    12.011   -5.508156   -1.434629    4.381166
  39 C     6.0000    0    12.011   -6.435829    0.980443    4.309200
  40 H     1.0000    0     1.008    9.644758    0.177909   -2.120110
  41 H     1.0000    0     1.008   10.784724   -4.093148   -3.379365
  42 H     1.0000    0     1.008    7.651093   -7.456840   -3.440281
  43 H     1.0000    0     1.008   -4.661325   -4.334436   -2.455291
  44 H     1.0000    0     1.008    7.375562    7.495049    1.138231
  45 H     1.0000    0     1.008    8.746181    3.360943   -0.345997
  46 H     1.0000    0     1.008    5.279157  -10.158247   -2.286644
  47 H     1.0000    0     1.008    2.081495  -13.460006   -2.223196
  48 H     1.0000    0     1.008   -2.451220  -12.322527   -2.046169
  49 H     1.0000    0     1.008   -3.710817   -7.905717   -1.921116
  50 H     1.0000    0     1.008   -7.746111   -1.062582   -2.992296
  51 H     1.0000    0     1.008   -8.814895    3.460776   -3.312423
  52 H     1.0000    0     1.008   -5.428122    6.659474   -3.088327
  53 H     1.0000    0     1.008   -1.076589    5.405312   -2.208248
  54 H     1.0000    0     1.008   -0.434497   11.044001    3.696408
  55 H     1.0000    0     1.008    4.064961   10.296295    2.694489
  56 H     1.0000    0     1.008   -7.690799    5.886742    4.431739
  57 H     1.0000    0     1.008   -4.685174    9.446796    4.277433
  58 H     1.0000    0     1.008    0.699766   -0.199001    3.561943
  59 H     1.0000    0     1.008   -2.160425   -3.734009    4.361829
  60 H     1.0000    0     1.008   -6.759583   -3.014329    4.705178
  61 H     1.0000    0     1.008   -8.420139    1.340526    4.633159

--------------------------------
INTERNAL COORDINATES (ANGSTROEM)
--------------------------------
 C      0   0   0     0.000000000000     0.00000000     0.00000000
 C      1   0   0     1.417132904985     0.00000000     0.00000000
 C      2   1   0     1.428599740224   119.50049902     0.00000000
 C      3   2   1     1.400142662562   119.37573448   356.90807563
 C      4   3   2     1.443370091640   118.25541880   340.73022006
 C      5   4   3     1.402136980637   118.44116497    28.66060924
 C      1   2   3     1.395933029870   118.54549675   192.88085391
 C      7   1   2     1.378459069892   120.79078020   357.86113847
 C      8   7   1     1.383165741190   120.58521042   357.99242974
 C      9   8   7     1.391404227571   120.86719346     2.21690003
 C     10   9   8     1.454261887716   122.19747185   181.24251391
 C     11  10   9     1.409381720147   119.99305478   192.58731885
 C      3   2   1     1.426987345585   120.55642205   173.98508780
 C     13   3   2     1.376739209277   118.54831820   188.42555832
 C     14  13   3     1.405755765799   121.81959190     6.59084989
 C     15  14  13     1.416613007914   119.52253848   353.47308354
 C      5   4   3     1.429584477785   122.15356764   208.35606426
 C     17   5   4     1.411668889170   118.03670580   201.75905947
 C     18  17   5     1.410442740778   118.96244150   345.69042036
 C     19  18  17     1.362554739651   120.82723790   359.12831423
 C     11  10   9     1.399263239529   121.25084485    14.05469711
 C     21  11  10     1.376200879676   121.57177760   179.49293404
 C     22  21  11     1.388207556409   119.69545909   359.51973320
 C     23  22  21     1.376143645621   119.74799962   359.73046289
 C     15  14  13     1.410543113836   121.29283878   172.93816526
 C     25  15  14     1.365769332983   120.81586855   184.07049055
 C     26  25  15     1.401794728701   119.83698746     2.59585914
 C     27  26  25     1.367714388751   120.48650445   355.80653639
 C     17   5   4     1.434289675409   123.94194799    20.45864933
 C     29  17   5     1.405164648827   118.28995373   203.18581017
 C     30  29  17     1.417698575409   119.64503345   345.75204366
 C     31  30  29     1.357776131568   120.50287965   358.31981018
 C     29  17   5     1.435444714056   123.66000824    24.13815806
 C     33  29  17     1.414435461468   118.95659847   198.14483395
 C     34  33  29     1.420278885896   119.28391302   351.04480646
 C     35  34  33     1.355420213748   120.36403585   354.79943653
 C     33  29  17     1.406196678674   122.86860465    21.60495866
 C     37  33  29     1.370621433154   121.00679277   184.51647434
 C     38  37  33     1.397919904516   120.32373117   359.13209352
 C     39  38  37     1.369570135949   119.73584149   355.14163150
 H      7   1   2     1.078028824258   120.52197333   177.11541636
 H      8   7   1     1.080364593101   119.76996458   178.72949023
 H      9   8   7     1.078162758125   118.55964994   180.28323629
 H     14  13   3     1.078581955389   121.06502469   182.72071794
 H     19  18  17     1.080544912836   118.60976773   181.75396322
 H     20  19  18     1.077853854976   119.01786900   186.74792660
 H     21  11  10     1.078475972073   119.90431422     0.93186069
 H     22  21  11     1.080075316334   120.08705571   180.18336009
 H     23  22  21     1.080128925544   120.18108713   180.52000137
 H     24  23  22     1.078231583752   118.46977747   181.74627691
 H     25  15  14     1.080841128613   118.53126156     2.91165951
 H     26  25  15     1.080158663570   120.52455143   180.31979929
 H     27  26  25     1.080074388739   119.53316803   175.33361647
 H     28  27  26     1.079274603422   119.63523642   177.53445182
 H     31  30  29     1.080568724194   118.48782280   181.67907922
 H     32  31  30     1.080495241617   121.07140480   186.52791829
 H     35  34  33     1.080545867339   118.51586294   178.97212275
 H     36  35  34     1.080846006699   120.88729070   186.68694321
 H     37  33  29     1.079218686665   119.36112699     6.67510660
 H     38  37  33     1.080272617044   119.94328466   179.60130339
 H     39  38  37     1.080157833198   119.75379658   177.89133888
 H     40  39  38     1.080881689542   120.55096697   184.68172095

---------------------------
INTERNAL COORDINATES (A.U.)
---------------------------
 C      0   0   0     0.000000000000     0.00000000     0.00000000
 C      1   0   0     2.677993085790     0.00000000     0.00000000
 C      2   1   0     2.699662264014   119.50049902     0.00000000
 C      3   2   1     2.645886180661   119.37573448   356.90807563
 C      4   3   2     2.727574183092   118.25541880   340.73022006
 C      5   4   3     2.649654895647   118.44116497    28.66060924
 C      1   2   3     2.637931127750   118.54549675   192.88085391
 C      7   1   2     2.604910128916   120.79078020   357.86113847
 C      8   7   1     2.613804448672   120.58521042   357.99242974
 C      9   8   7     2.629372931689   120.86719346     2.21690003
 C     10   9   8     2.748156694783   122.19747185   181.24251391
 C     11  10   9     2.663345469233   119.99305478   192.58731885
 C      3   2   1     2.696615279728   120.55642205   173.98508780
 C     13   3   2     2.601660063365   118.54831820   188.42555832
 C     14  13   3     2.656493408540   121.81959190     6.59084989
 C     15  14  13     2.677010622708   119.52253848   353.47308354
 C      5   4   3     2.701523148319   122.15356764   208.35606426
 C     17   5   4     2.667667592308   118.03670580   201.75905947
 C     18  17   5     2.665350507647   118.96244150   345.69042036
 C     19  18  17     2.574855300416   120.82723790   359.12831423
 C     11  10   9     2.644224311973   121.25084485    14.05469711
 C     21  11  10     2.600642767850   121.57177760   179.49293404
 C     22  21  11     2.623332098652   119.69545909   359.51973320
 C     23  22  21     2.600534611160   119.74799962   359.73046289
 C     15  14  13     2.665540185239   121.29283878   172.93816526
 C     25  15  14     2.580930001446   120.81586855   184.07049055
 C     26  25  15     2.649008133220   119.83698746     2.59585914
 C     27  26  25     2.584605624163   120.48650445   355.80653639
 C     17   5   4     2.710414683235   123.94194799    20.45864933
 C     29  17   5     2.655376359350   118.28995373   203.18581017
 C     30  29  17     2.679062047973   119.64503345   345.75204366
 C     31  30  29     2.565825039839   120.50287965   358.31981018
 C     29  17   5     2.712597389950   123.66000824    24.13815806
 C     33  29  17     2.672895656281   118.95659847   198.14483395
 C     34  33  29     2.683938128134   119.28391302   351.04480646
 C     35  34  33     2.561373000365   120.36403585   354.79943653
 C     33  29  17     2.657326613124   122.86860465    21.60495866
 C     37  33  29     2.590099141943   121.00679277   184.51647434
 C     38  37  33     2.641685776692   120.32373117   359.13209352
 C     39  38  37     2.588112478140   119.73584149   355.14163150
 H      7   1   2     2.037179242322   120.52197333   177.11541636
 H      8   7   1     2.041593205746   119.76996458   178.72949023
 H      9   8   7     2.037432340649   118.55964994   180.28323629
 H     14  13   3     2.038224508675   121.06502469   182.72071794
 H     19  18  17     2.041933960662   118.60976773   181.75396322
 H     20  19  18     2.036848598296   119.01786900   186.74792660
 H     21  11  10     2.038024229232   119.90431422     0.93186069
 H     22  21  11     2.041046551880   120.08705571   180.18336009
 H     23  22  21     2.041147858606   120.18108713   180.52000137
 H     24  23  22     2.037562402235   118.46977747   181.74627691
 H     25  15  14     2.042493727358   118.53126156     2.91165951
 H     26  25  15     2.041204055329   120.52455143   180.31979929
 H     27  26  25     2.041044798980   119.53316803   175.33361647
 H     28  27  26     2.039533423763   119.63523642   177.53445182
 H     31  30  29     2.041978957607   118.48782280   181.67907922
 H     32  31  30     2.041840095661   121.07140480   186.52791829
 H     35  34  33     2.041935764411   118.51586294   178.97212275
 H     36  35  34     2.042502945604   120.88729070   186.68694321
 H     37  33  29     2.039427756408   119.36112699     6.67510660
 H     38  37  33     2.041419396188   119.94328466   179.60130339
 H     39  38  37     2.041202486154   119.75379658   177.89133888
 H     40  39  38     2.042570376404   120.55096697   184.68172095

---------------------
BASIS SET INFORMATION
---------------------
There are 2 groups of distinct atoms

 Group   1 Type C   : 15s8p3d2f1g contracted to 7s4p3d2f1g pattern {8211111/5111/111/11/1}
 Group   2 Type H   : 7s3p2d1f contracted to 4s3p2d1f pattern {4111/111/11/1}

Atom   0C    basis set group =>   1
Atom   1C    basis set group =>   1
Atom   2C    basis set group =>   1
Atom   3C    basis set group =>   1
Atom   4C    basis set group =>   1
Atom   5C    basis set group =>   1
Atom   6C    basis set group =>   1
Atom   7C    basis set group =>   1
Atom   8C    basis set group =>   1
Atom   9C    basis set group =>   1
Atom  10C    basis set group =>   1
Atom  11C    basis set group =>   1
Atom  12C    basis set group =>   1
Atom  13C    basis set group =>   1
Atom  14C    basis set group =>   1
Atom  15C    basis set group =>   1
Atom  16C    basis set group =>   1
Atom  17C    basis set group =>   1
Atom  18C    basis set group =>   1
Atom  19C    basis set group =>   1
Atom  20C    basis set group =>   1
Atom  21C    basis set group =>   1
Atom  22C    basis set group =>   1
Atom  23C    basis set group =>   1
Atom  24C    basis set group =>   1
Atom  25C    basis set group =>   1
Atom  26C    basis set group =>   1
Atom  27C    basis set group =>   1
Atom  28C    basis set group =>   1
Atom  29C    basis set group =>   1
Atom  30C    basis set group =>   1
Atom  31C    basis set group =>   1
Atom  32C    basis set group =>   1
Atom  33C    basis set group =>   1
Atom  34C    basis set group =>   1
Atom  35C    basis set group =>   1
Atom  36C    basis set group =>   1
Atom  37C    basis set group =>   1
Atom  38C    basis set group =>   1
Atom  39C    basis set group =>   1
Atom  40H    basis set group =>   2
Atom  41H    basis set group =>   2
Atom  42H    basis set group =>   2
Atom  43H    basis set group =>   2
Atom  44H    basis set group =>   2
Atom  45H    basis set group =>   2
Atom  46H    basis set group =>   2
Atom  47H    basis set group =>   2
Atom  48H    basis set group =>   2
Atom  49H    basis set group =>   2
Atom  50H    basis set group =>   2
Atom  51H    basis set group =>   2
Atom  52H    basis set group =>   2
Atom  53H    basis set group =>   2
Atom  54H    basis set group =>   2
Atom  55H    basis set group =>   2
Atom  56H    basis set group =>   2
Atom  57H    basis set group =>   2
Atom  58H    basis set group =>   2
Atom  59H    basis set group =>   2
Atom  60H    basis set group =>   2
Atom  61H    basis set group =>   2
---------------------------------
AUXILIARY/C BASIS SET INFORMATION
---------------------------------
There are 2 groups of distinct atoms

 Group   1 Type C   : 9s8p7d5f3g1h contracted to 9s8p7d5f3g1h pattern {111111111/11111111/1111111/11111/111/1}
 Group   2 Type H   : 6s4p3d2f1g contracted to 6s4p3d2f1g pattern {111111/1111/111/11/1}

Atom   0C    basis set group =>   1
Atom   1C    basis set group =>   1
Atom   2C    basis set group =>   1
Atom   3C    basis set group =>   1
Atom   4C    basis set group =>   1
Atom   5C    basis set group =>   1
Atom   6C    basis set group =>   1
Atom   7C    basis set group =>   1
Atom   8C    basis set group =>   1
Atom   9C    basis set group =>   1
Atom  10C    basis set group =>   1
Atom  11C    basis set group =>   1
Atom  12C    basis set group =>   1
Atom  13C    basis set group =>   1
Atom  14C    basis set group =>   1
Atom  15C    basis set group =>   1
Atom  16C    basis set group =>   1
Atom  17C    basis set group =>   1
Atom  18C    basis set group =>   1
Atom  19C    basis set group =>   1
Atom  20C    basis set group =>   1
Atom  21C    basis set group =>   1
Atom  22C    basis set group =>   1
Atom  23C    basis set group =>   1
Atom  24C    basis set group =>   1
Atom  25C    basis set group =>   1
Atom  26C    basis set group =>   1
Atom  27C    basis set group =>   1
Atom  28C    basis set group =>   1
Atom  29C    basis set group =>   1
Atom  30C    basis set group =>   1
Atom  31C    basis set group =>   1
Atom  32C    basis set group =>   1
Atom  33C    basis set group =>   1
Atom  34C    basis set group =>   1
Atom  35C    basis set group =>   1
Atom  36C    basis set group =>   1
Atom  37C    basis set group =>   1
Atom  38C    basis set group =>   1
Atom  39C    basis set group =>   1
Atom  40H    basis set group =>   2
Atom  41H    basis set group =>   2
Atom  42H    basis set group =>   2
Atom  43H    basis set group =>   2
Atom  44H    basis set group =>   2
Atom  45H    basis set group =>   2
Atom  46H    basis set group =>   2
Atom  47H    basis set group =>   2
Atom  48H    basis set group =>   2
Atom  49H    basis set group =>   2
Atom  50H    basis set group =>   2
Atom  51H    basis set group =>   2
Atom  52H    basis set group =>   2
Atom  53H    basis set group =>   2
Atom  54H    basis set group =>   2
Atom  55H    basis set group =>   2
Atom  56H    basis set group =>   2
Atom  57H    basis set group =>   2
Atom  58H    basis set group =>   2
Atom  59H    basis set group =>   2
Atom  60H    basis set group =>   2
Atom  61H    basis set group =>   2
----------------------------------
AUXILIARY/JK BASIS SET INFORMATION
----------------------------------
There are 2 groups of distinct atoms

 Group   1 Type C   : 9s8p7d5f3g1h contracted to 9s8p7d5f3g1h pattern {111111111/11111111/1111111/11111/111/1}
 Group   2 Type H   : 6s4p3d2f1g contracted to 6s4p3d2f1g pattern {111111/1111/111/11/1}

Atom   0C    basis set group =>   1
Atom   1C    basis set group =>   1
Atom   2C    basis set group =>   1
Atom   3C    basis set group =>   1
Atom   4C    basis set group =>   1
Atom   5C    basis set group =>   1
Atom   6C    basis set group =>   1
Atom   7C    basis set group =>   1
Atom   8C    basis set group =>   1
Atom   9C    basis set group =>   1
Atom  10C    basis set group =>   1
Atom  11C    basis set group =>   1
Atom  12C    basis set group =>   1
Atom  13C    basis set group =>   1
Atom  14C    basis set group =>   1
Atom  15C    basis set group =>   1
Atom  16C    basis set group =>   1
Atom  17C    basis set group =>   1
Atom  18C    basis set group =>   1
Atom  19C    basis set group =>   1
Atom  20C    basis set group =>   1
Atom  21C    basis set group =>   1
Atom  22C    basis set group =>   1
Atom  23C    basis set group =>   1
Atom  24C    basis set group =>   1
Atom  25C    basis set group =>   1
Atom  26C    basis set group =>   1
Atom  27C    basis set group =>   1
Atom  28C    basis set group =>   1
Atom  29C    basis set group =>   1
Atom  30C    basis set group =>   1
Atom  31C    basis set group =>   1
Atom  32C    basis set group =>   1
Atom  33C    basis set group =>   1
Atom  34C    basis set group =>   1
Atom  35C    basis set group =>   1
Atom  36C    basis set group =>   1
Atom  37C    basis set group =>   1
Atom  38C    basis set group =>   1
Atom  39C    basis set group =>   1
Atom  40H    basis set group =>   2
Atom  41H    basis set group =>   2
Atom  42H    basis set group =>   2
Atom  43H    basis set group =>   2
Atom  44H    basis set group =>   2
Atom  45H    basis set group =>   2
Atom  46H    basis set group =>   2
Atom  47H    basis set group =>   2
Atom  48H    basis set group =>   2
Atom  49H    basis set group =>   2
Atom  50H    basis set group =>   2
Atom  51H    basis set group =>   2
Atom  52H    basis set group =>   2
Atom  53H    basis set group =>   2
Atom  54H    basis set group =>   2
Atom  55H    basis set group =>   2
Atom  56H    basis set group =>   2
Atom  57H    basis set group =>   2
Atom  58H    basis set group =>   2
Atom  59H    basis set group =>   2
Atom  60H    basis set group =>   2
Atom  61H    basis set group =>   2


           ************************************************************
           *        Program running with 104 parallel MPI-processes   *
           *              working on a common directory               *
           ************************************************************
------------------------------------------------------------------------------
                             ORCA STARTUP CALCULATIONS
                           -- RI-GTO INTEGRALS CHOSEN --
------------------------------------------------------------------------------
------------------------------------------------------------------------------
                   ___                                                        
                  /   \      - P O W E R E D   B Y -                         
                 /     \                                                     
                 |  |  |   _    _      __       _____    __    __             
                 |  |  |  | |  | |    /  \     |  _  \  |  |  /  |          
                  \  \/   | |  | |   /    \    | | | |  |  | /  /          
                 / \  \   | |__| |  /  /\  \   | |_| |  |  |/  /          
                |  |  |   |  __  | /  /__\  \  |    /   |      \           
                |  |  |   | |  | | |   __   |  |    \   |  |\   \          
                \     /   | |  | | |  |  |  |  | |\  \  |  | \   \       
                 \___/    |_|  |_| |__|  |__|  |_| \__\ |__|  \__/        
                                                                              
                      - O R C A' S   B I G   F R I E N D -                    
                                      &                                       
                       - I N T E G R A L  F E E D E R -                       
                                                                              
 v1 FN, 2020, v2 2021, v3 2022-2024                                           
------------------------------------------------------------------------------


----------------------
SHARK INTEGRAL PACKAGE
----------------------

Number of atoms                             ...     62
Number of basis functions                   ...   2940
Number of shells                            ...    900
Maximum angular momentum                    ...      4
Integral batch strategy                     ... SHARK/LIBINT Hybrid
RI-J (if used) integral strategy            ... SPLIT-RIJ (Revised 2003 algorithm where possible)
Printlevel                                  ...      1
Contraction scheme used                     ... SEGMENTED contraction
Prescreening option                         ... SCHWARTZ
   Thresh                                   ... 1.000e-10
   Tcut                                     ... 1.000e-11
   Tpresel                                  ... 1.000e-11 
Coulomb Range Separation                    ... NOT USED
Exchange Range Separation                   ... NOT USED
Multipole approximations                    ... NOT USED
Finite Nucleus Model                        ... NOT USED
CABS basis                                  ... NOT available
Auxiliary Coulomb fitting basis             ... NOT available
Auxiliary J/K fitting basis                 ... AVAILABLE
   # of basis functions in Aux-JK           ...   6872
   # of shells in Aux-JK                    ...   1672
   Maximum angular momentum in Aux-JK       ...      5
Auxiliary Correlation fitting basis         ... AVAILABLE
   # of basis functions in Aux-C            ...   6872
   # of shells in Aux-C                     ...   1672
   Maximum angular momentum in Aux-C        ...      5
Auxiliary 'external' fitting basis          ... NOT available

Checking pre-screening integrals            ... done (  0.0 sec) Dimension = 900
Check shell pair data                       ... done (  0.0 sec)
Shell pair information
Shell pair cut-off parameter TPreSel        ...   1.0e-11
Total number of shell pairs                 ...    405450
Shell pairs after pre-screening             ...    215030
Total number of primitive shell pairs       ...   1047873
Primitive shell pairs kept                  ...    366863
          la=0 lb=0:  32558 shell pairs
          la=1 lb=0:  49396 shell pairs
          la=1 lb=1:  17589 shell pairs
          la=2 lb=0:  28925 shell pairs
          la=2 lb=1:  22386 shell pairs
          la=2 lb=2:   6839 shell pairs
          la=3 lb=0:  16972 shell pairs
          la=3 lb=1:  13256 shell pairs
          la=3 lb=2:   7693 shell pairs
          la=3 lb=3:   2266 shell pairs
          la=4 lb=0:   6611 shell pairs
          la=4 lb=1:   5306 shell pairs
          la=4 lb=2:   3081 shell pairs
          la=4 lb=3:   1774 shell pairs
          la=4 lb=4:    378 shell pairs

Calculating one electron integrals          ... done (  1.4 sec)
Calculating RI/JK V-Matrix + Cholesky decomp... done (  1.9 sec)
Calculating RI/C V-Matrix + Cholesky decomp.... done (  1.9 sec)
Calculating Nuclear repulsion               ... done (  0.0 sec) ENN=   4317.578565141005 Eh

Diagonalization of the overlap matrix:
Smallest eigenvalue                        ... 1.657e-07
Time for diagonalization                   ...    1.308 sec
Threshold for overlap eigenvalues          ... 1.000e-07
Number of eigenvalues below threshold      ... 0

IMPORTANT:
Smallest eigenvalue of S below the DiffSThresh (1.000e-06) while
Thresh>1e-12 and/or TCut>1e-13! In order to avoid SCF convergence issues,
Thresh will be set to at least 1e-12 and TCut to at least 1e-13.
This can be turned off by adding %SCF DiffSThresh -1 END to the input.

Time for construction of square roots      ...    0.897 sec
Total time needed                          ...    2.308 sec

-------------------
DFT GRID GENERATION
-------------------

General Integration Accuracy     IntAcc      ... 4.959
Radial Grid Type                 RadialGrid  ... OptM3 with GC (2021)
Angular Grid (max. ang.)         AngularGrid ... 6 (Lebedev-590)
Angular grid pruning method      GridPruning ... 4 (adaptive)
Weight generation scheme         WeightScheme... mBecke (2022)
Basis function cutoff            BFCut       ... 1.0000e-10
Integration weight cutoff        WCut        ... 1.0000e-14
Partially contracted basis set               ... off
Rotationally invariant grid construction     ... off
Angular grids for H and He will be reduced by one unit
Diffuse basis detected: some atoms will have their outermost
                        angular grid increased by 1.

Total number of grid points                  ...   757646
Total number of batches                      ...    11871
Average number of points per batch           ...       63
Average number of grid points per atom       ...    12220
Initializing property integral containers    ... done (  0.0 sec)

SHARK setup successfully completed in  19.0 seconds

Maximum memory used throughout the entire STARTUP-calculation: 418.9 MB


           ************************************************************
           *        Program running with 104 parallel MPI-processes   *
           *              working on a common directory               *
           ************************************************************
-------------------------------------------------------------------------------
                                 ORCA GUESS
                   Start orbitals & Density for SCF / CASSCF
-------------------------------------------------------------------------------

------------
SCF SETTINGS
------------
Hamiltonian:
 Density Functional     Method          .... DFT(GTOs)
 Exchange Functional    Exchange        .... PBE
   PBE kappa parameter   XKappa         ....  0.804000
   PBE mue parameter    XMuePBE         ....  0.219520
 Correlation Functional Correlation     .... P86
 LDA part of GGA corr.  LDAOpt          .... VWN-5
 Gradients option       PostSCFGGA      .... off
 Hybrid DFT is turned on
   Fraction HF Exchange ScalHFX         ....  0.690000
   Scaling of DF-GGA-X  ScalDFX         ....  0.310000
   Scaling of DF-GGA-C  ScalDFC         ....  0.403800
   Scaling of DF-LDA-C  ScalLDAC        ....  0.403800
   Perturbative correction              ....  1.000000
 RI-approximation to the Coulomb term is turned on
   Number of AuxJK basis functions      .... 6872
   RI-JK (J+K treated both via RI)      .... on


General Settings:
 Integral files         IntName         .... compas3x_hc_c40h22_0pent_1_qz_riri
 Hartree-Fock type      HFTyp           .... RHF
 Total Charge           Charge          ....    0
 Multiplicity           Mult            ....    1
 Number of Electrons    NEL             ....  262
 Basis Dimension        Dim             .... 2940
 Nuclear Repulsion      ENuc            ....   4317.5785651410 Eh

Convergence Acceleration:
 AO-DIIS                CNVDIIS         .... on
   Start iteration      DIISMaxIt       ....    12
   Startup error        DIISStart       ....  0.200000
   # of expansion vecs  DIISMaxEq       ....     5
   Bias factor          DIISBfac        ....   1.050
   Max. coefficient     DIISMaxC        ....  10.000
 MO-DIIS                CNVKDIIS        .... off
 Trust-Rad. Augm. Hess. CNVTRAH         .... auto
   Auto Start mean grad. ratio tolernc. ....  1.125000
   Auto Start start iteration           ....    50
   Auto Start num. interpolation iter.  ....    10
   Max. Number of Micro iterations      ....    24
   Max. Number of Macro iterations      .... Maxiter - #DIIS iter
   Number of Davidson start vectors     ....     2
   Converg. threshold    (grad. norm)   ....   5.000e-05
   Grad. Scal. Fac. for Micro threshold ....   0.100
   Minimum threshold for Micro iter.    ....   1.000e-02
   NR start threshold (gradient norm)   ....   1.000e-04
   Initial trust radius                 ....   0.400
   Minimum AH scaling param. (alpha)    ....   1.000
   Maximum AH scaling param. (alpha)    .... 1000.000
   Quad. conv. algorithm                .... NR
   White noise on init. David. guess    .... on
   Maximum white noise                  ....   0.010
   Pseudo random numbers                .... off
   Inactive MOs                         .... canonical
   Orbital update algorithm             .... Taylor
   Preconditioner                       .... Diag
   Full preconditioner red. dimension   ....   250
 SOSCF                  CNVSOSCF        .... on
   Start iteration      SOSCFMaxIt      ....   150
   Startup grad/error   SOSCFStart      ....  0.003300
   Hessian update       SOSCFHessUp     .... L-BFGS
 Level Shifting         CNVShift        .... on
   Level shift para.    LevelShift      ....    0.2500
   Turn off err/grad.   ShiftErr        ....    0.0010
 Zerner damping         CNVZerner       .... off
 Static damping         CNVDamp         .... on
   Fraction old density DampFac         ....    0.7000
   Max. Damping (<1)    DampMax         ....    0.9800
   Min. Damping (>=0)   DampMin         ....    0.0000
   Turn off err/grad.   DampErr         ....    0.1000

SCF Procedure:
 Maximum # iterations   MaxIter         ....   125
 SCF integral mode      SCFMode         .... Direct
   Integral package                     .... SHARK and LIBINT hybrid scheme
 Reset frequency        DirectResetFreq ....    20
 Integral Threshold     Thresh          ....  1.000e-12 Eh
 Primitive CutOff       TCut            ....  1.000e-13 Eh

Convergence Tolerance:
 Convergence Check Mode ConvCheckMode   .... Total+1el-Energy
 Convergence forced     ConvForced      .... 0
 Energy Change          TolE            ....  1.000e-06 Eh
 1-El. energy change                    ....  1.000e-03 Eh
 Orbital Gradient       TolG            ....  5.000e-05
 Orbital Rotation angle TolX            ....  5.000e-05
 DIIS Error             TolErr          ....  1.000e-06

------------------------------
INITIAL GUESS: MODEL POTENTIAL
------------------------------
Loading Hartree-Fock densities                     ... done
Calculating cut-offs                               ... done
Initializing the effective Hamiltonian             ... done
Setting up the integral package (SHARK)            ... done
Starting the Coulomb interaction                   ... done (   0.9 sec)
Making the grid                                    ... done (   0.5 sec)
Mapping shells                                     ... done
Starting the XC term evaluation                    ... done (   0.3 sec)
  promolecular density results
     # of electrons  =    261.995343505
     EX              =   -211.396765520
     EC              =      0.296067113
     EX+EC           =   -211.100698407
Transforming the Hamiltonian                       ... done (   0.7 sec)
Diagonalizing the Hamiltonian                      ... done (   0.9 sec)
Back transforming the eigenvectors                 ... done (   1.3 sec)
Now organizing SCF variables                       ... done
                      ------------------
                      INITIAL GUESS DONE (   6.6 sec)
                      ------------------
             **** ENERGY FILE WAS UPDATED (compas3x_hc_c40h22_0pent_1_qz_riri.en.tmp) ****
Finished Guess after  25.5 sec
Maximum memory used throughout the entire GUESS-calculation: 485.4 MB


           ************************************************************
           *        Program running with 104 parallel MPI-processes   *
           *              working on a common directory               *
           ************************************************************

-------------------------------------------------------------------------------------------
                                      ORCA LEAN-SCF
                              memory conserving SCF solver
-------------------------------------------------------------------------------------------


Warning (ORCA_SCF): Not enough memory available!
                    Memory available for SCF calculation:       1024.0 MB
                    Memory needed (estimated)           :       1521.4 MB


----------------------------------------D-I-I-S--------------------------------------------
Iteration    Energy (Eh)           Delta-E    RMSDP     MaxDP     DIISErr   Damp  Time(sec)
-------------------------------------------------------------------------------------------
    1    -1530.9416931995201594     0.00e+00  6.97e-04  2.70e-01  1.53e-01  0.700  59.2
    2    -1530.6615032686731865     2.80e-01  1.10e-03  5.35e-01  1.34e-01  0.700  62.6
                               ***Turning on AO-DIIS***
    3    -1530.8404746057385637    -1.79e-01  4.28e-04  1.81e-01  7.76e-02  0.700  59.7
    4    -1531.1949473200047578    -3.54e-01  1.06e-03  4.23e-01  4.10e-02  0.000  59.4
    5    -1531.7509122962783294    -5.56e-01  4.79e-04  2.43e-01  3.30e-02  0.000  59.3
    6    -1531.7729798346508687    -2.21e-02  1.04e-04  3.03e-02  1.59e-02  0.000  62.2
    7    -1531.7788606746489677    -5.88e-03  5.36e-05  2.20e-02  5.53e-03  0.000  62.4
                              *** Initializing SOSCF ***
---------------------------------------S-O-S-C-F--------------------------------------
Iteration    Energy (Eh)           Delta-E    RMSDP     MaxDP     MaxGrad    Time(sec)
--------------------------------------------------------------------------------------
    8    -1531.7796535270063032    -7.93e-04  7.26e-05  3.74e-02  1.38e-03    64.2
    9    -1531.7797204132493789    -6.69e-05  3.04e-05  1.38e-02  1.52e-04    58.9
   10    -1531.7797268789317968    -6.47e-06  3.47e-05  1.76e-02  8.31e-05    57.3
   11    -1531.7797286178738432    -1.74e-06  5.45e-06  2.15e-03  6.80e-05    57.4
   12    -1531.7797291732777012    -5.55e-07  6.04e-06  3.00e-03  2.46e-05    58.2
                 **** Energy Check signals convergence ****

               *****************************************************
               *                     SUCCESS                       *
               *           SCF CONVERGED AFTER  12 CYCLES          *
               *****************************************************

             **** ENERGY FILE WAS UPDATED (compas3x_hc_c40h22_0pent_1_qz_riri.en.tmp) ****

----------------
TOTAL SCF ENERGY
----------------

Total Energy       :      -1531.77972917327770 Eh          -41681.84549 eV

Components:
Nuclear Repulsion  :       4317.57856514100513 Eh          117487.28570 eV
Electronic Energy  :      -5849.35829431428283 Eh         -159169.13119 eV
One Electron Energy:     -10669.12923391762524 Eh         -290321.76613 eV
Two Electron Energy:       4819.77093960334241 Eh          131152.63494 eV

Virial components:
Potential Energy   :      -3060.39627558589655 Eh          -83277.61641 eV
Kinetic Energy     :       1528.61654641261885 Eh           41595.77092 eV
Virial Ratio       :          2.00206931082101

DFT components:
N(Alpha)           :      131.000052883517 electrons
N(Beta)            :      131.000052883517 electrons
N(Total)           :      262.000105767033 electrons
E(X)               :      -66.643972398246 Eh       
E(C)               :       -3.923512453521 Eh       
E(XC)              :      -70.567484851767 Eh       

---------------
SCF CONVERGENCE
---------------

  Last Energy change         ...    5.5540e-07  Tolerance :   1.0000e-06
  Last MAX-Density change    ...    3.0029e-03  Tolerance :   1.0000e-05
  Last RMS-Density change    ...    6.0361e-06  Tolerance :   1.0000e-06
  Last DIIS Error            ...    1.3765e-03  Tolerance :   1.0000e-06
  Last Orbital Gradient      ...    2.4627e-05  Tolerance :   5.0000e-05
  Last Orbital Rotation      ...    6.6257e-05  Tolerance :   5.0000e-05


----------------
ORBITAL ENERGIES
----------------

  NO   OCC          E(Eh)            E(eV) 
   0   2.0000     -10.837026      -294.8905 
   1   2.0000     -10.836204      -294.8681 
   2   2.0000     -10.835840      -294.8582 
   3   2.0000     -10.835393      -294.8460 
   4   2.0000     -10.835173      -294.8401 
   5   2.0000     -10.834493      -294.8216 
   6   2.0000     -10.833803      -294.8028 
   7   2.0000     -10.833350      -294.7904 
   8   2.0000     -10.832866      -294.7773 
   9   2.0000     -10.832071      -294.7556 
  10   2.0000     -10.832068      -294.7556 
  11   2.0000     -10.831876      -294.7503 
  12   2.0000     -10.831314      -294.7350 
  13   2.0000     -10.829563      -294.6874 
  14   2.0000     -10.825370      -294.5733 
  15   2.0000     -10.825122      -294.5665 
  16   2.0000     -10.824619      -294.5529 
  17   2.0000     -10.824100      -294.5387 
  18   2.0000     -10.824025      -294.5367 
  19   2.0000     -10.823457      -294.5212 
  20   2.0000     -10.823257      -294.5158 
  21   2.0000     -10.822880      -294.5055 
  22   2.0000     -10.822380      -294.4919 
  23   2.0000     -10.821688      -294.4731 
  24   2.0000     -10.821485      -294.4676 
  25   2.0000     -10.821431      -294.4661 
  26   2.0000     -10.820711      -294.4465 
  27   2.0000     -10.820560      -294.4424 
  28   2.0000     -10.820209      -294.4329 
  29   2.0000     -10.819774      -294.4210 
  30   2.0000     -10.819574      -294.4156 
  31   2.0000     -10.818616      -294.3895 
  32   2.0000     -10.815926      -294.3163 
  33   2.0000     -10.814865      -294.2874 
  34   2.0000     -10.814307      -294.2723 
  35   2.0000     -10.813384      -294.2471 
  36   2.0000     -10.813083      -294.2390 
  37   2.0000     -10.811908      -294.2070 
  38   2.0000     -10.811905      -294.2069 
  39   2.0000     -10.810804      -294.1769 
  40   2.0000      -1.105395       -30.0793 
  41   2.0000      -1.084619       -29.5140 
  42   2.0000      -1.063111       -28.9287 
  43   2.0000      -1.060864       -28.8676 
  44   2.0000      -1.045887       -28.4600 
  45   2.0000      -1.023597       -27.8535 
  46   2.0000      -1.014162       -27.5968 
  47   2.0000      -0.992095       -26.9963 
  48   2.0000      -0.979856       -26.6632 
  49   2.0000      -0.964828       -26.2543 
  50   2.0000      -0.956743       -26.0343 
  51   2.0000      -0.946314       -25.7505 
  52   2.0000      -0.932192       -25.3662 
  53   2.0000      -0.920392       -25.0452 
  54   2.0000      -0.916167       -24.9302 
  55   2.0000      -0.902392       -24.5553 
  56   2.0000      -0.891018       -24.2458 
  57   2.0000      -0.886100       -24.1120 
  58   2.0000      -0.878169       -23.8962 
  59   2.0000      -0.863953       -23.5094 
  60   2.0000      -0.801206       -21.8019 
  61   2.0000      -0.791805       -21.5461 
  62   2.0000      -0.788672       -21.4609 
  63   2.0000      -0.774141       -21.0655 
  64   2.0000      -0.769103       -20.9284 
  65   2.0000      -0.766462       -20.8565 
  66   2.0000      -0.750303       -20.4168 
  67   2.0000      -0.738162       -20.0864 
  68   2.0000      -0.732271       -19.9261 
  69   2.0000      -0.711575       -19.3629 
  70   2.0000      -0.704338       -19.1660 
  71   2.0000      -0.698657       -19.0114 
  72   2.0000      -0.673231       -18.3196 
  73   2.0000      -0.662903       -18.0385 
  74   2.0000      -0.646351       -17.5881 
  75   2.0000      -0.637230       -17.3399 
  76   2.0000      -0.632835       -17.2203 
  77   2.0000      -0.627016       -17.0620 
  78   2.0000      -0.621217       -16.9042 
  79   2.0000      -0.605111       -16.4659 
  80   2.0000      -0.595544       -16.2056 
  81   2.0000      -0.593182       -16.1413 
  82   2.0000      -0.588788       -16.0217 
  83   2.0000      -0.576555       -15.6888 
  84   2.0000      -0.568881       -15.4800 
  85   2.0000      -0.560592       -15.2545 
  86   2.0000      -0.555284       -15.1100 
  87   2.0000      -0.552503       -15.0344 
  88   2.0000      -0.543211       -14.7815 
  89   2.0000      -0.538452       -14.6520 
  90   2.0000      -0.536664       -14.6034 
  91   2.0000      -0.531304       -14.4575 
  92   2.0000      -0.531020       -14.4498 
  93   2.0000      -0.529744       -14.4151 
  94   2.0000      -0.522030       -14.2052 
  95   2.0000      -0.520899       -14.1744 
  96   2.0000      -0.518262       -14.1026 
  97   2.0000      -0.513674       -13.9778 
  98   2.0000      -0.511141       -13.9089 
  99   2.0000      -0.504566       -13.7299 
 100   2.0000      -0.495471       -13.4825 
 101   2.0000      -0.485475       -13.2105 
 102   2.0000      -0.482031       -13.1167 
 103   2.0000      -0.476516       -12.9667 
 104   2.0000      -0.468538       -12.7496 
 105   2.0000      -0.466605       -12.6970 
 106   2.0000      -0.462681       -12.5902 
 107   2.0000      -0.458681       -12.4813 
 108   2.0000      -0.452520       -12.3137 
 109   2.0000      -0.446940       -12.1619 
 110   2.0000      -0.443583       -12.0705 
 111   2.0000      -0.436276       -11.8717 
 112   2.0000      -0.432321       -11.7641 
 113   2.0000      -0.424343       -11.5470 
 114   2.0000      -0.422845       -11.5062 
 115   2.0000      -0.414475       -11.2784 
 116   2.0000      -0.407278       -11.0826 
 117   2.0000      -0.400981       -10.9112 
 118   2.0000      -0.386141       -10.5074 
 119   2.0000      -0.372719       -10.1422 
 120   2.0000      -0.358661        -9.7597 
 121   2.0000      -0.352668        -9.5966 
 122   2.0000      -0.341486        -9.2923 
 123   2.0000      -0.320696        -8.7266 
 124   2.0000      -0.306873        -8.3505 
 125   2.0000      -0.297248        -8.0885 
 126   2.0000      -0.284777        -7.7492 
 127   2.0000      -0.265532        -7.2255 
 128   2.0000      -0.255365        -6.9488 
 129   2.0000      -0.249484        -6.7888 
 130   2.0000      -0.232040        -6.3141 
 131   0.0000      -0.005199        -0.1415 
 132   0.0000       0.003282         0.0893 
 133   0.0000       0.015134         0.4118 
 134   0.0000       0.029644         0.8067 
 135   0.0000       0.041136         1.1194 
 136   0.0000       0.060139         1.6365 
 137   0.0000       0.067339         1.8324 
 138   0.0000       0.072545         1.9741 
 139   0.0000       0.073630         2.0036 
 140   0.0000       0.075119         2.0441 
 141   0.0000       0.079659         2.1676 
*Only the first 10 virtual orbitals were printed.
-------
TIMINGS
-------

Total SCF time: 0 days 0 hours 12 min 23 sec 

Total time                  ....     743.340 sec
Sum of individual times     ....     742.862 sec  ( 99.9%)

SCF preparation             ....      17.464 sec  (  2.3%)
Fock matrix formation       ....     656.709 sec  ( 88.3%)
  Startup                   ....       4.665 sec  (  0.7% of F)
  RI-JK                     ....     605.926 sec  ( 92.3% of F)
  XC integration            ....      34.315 sec  (  5.2% of F)
    XC Preparation          ....       0.000 sec  (  0.0% of XC)
    Basis function eval.    ....       1.976 sec  (  5.8% of XC)
    Density eval.           ....       7.004 sec  ( 20.4% of XC)
    XC-Functional eval.     ....       0.054 sec  (  0.2% of XC)
    XC-Potential eval.      ....       8.650 sec  ( 25.2% of XC)
Diagonalization             ....       0.000 sec  (  0.0%)
Density matrix formation    ....      10.802 sec  (  1.5%)
Total Energy calculation    ....       2.982 sec  (  0.4%)
Population analysis         ....       0.000 sec  (  0.0%)
Orbital Transformation      ....       7.122 sec  (  1.0%)
Orbital Orthonormalization  ....       0.000 sec  (  0.0%)
DIIS solution               ....      35.743 sec  (  4.8%)
SOSCF solution              ....      11.688 sec  (  1.6%)
Finished LeanSCF after 744.5 sec

Maximum memory used throughout the entire LEANSCF-calculation: 1614.1 MB


           ************************************************************
           *        Program running with 104 parallel MPI-processes   *
           *              working on a common directory               *
           ************************************************************

------------------------------------------------------------------------------
                                ORCA  MP2 
------------------------------------------------------------------------------


-------------
RI-MP2 ENERGY
-------------
Dimension of the orbital basis            ... 2940
Dimension of the AuxC basis               ... 6872
Memory devoted to MP2                     ... 4096 MB   
Data format for matrix containers         ... DOUBLE
Compression type for matrix containers    ... UNCOMPRESSED
Scaling for aa/bb pairs                   ...   5.710e-02
Scaling for ab pairs                      ...   5.979e-01
Overall scaling of the MP2 energy         ...   1.000e+00

-----------------------
SHARK RI TRANSFORMATION
-----------------------

Number of basis functions                ...   2940
Number of aux functions                  ...   6872
Number of operators                      ...      1
Generation of IJK                        ... NO
Generation of IAK                        ... YES
Generation of ABK                        ... NO
Orbital Range Operator  0:    0- 130 to  131-2939

Aux basis identifier                     ...   AUXC
Contraction scheme used                  ... SEGMENTED
Do orthogonalization                     ... YES
All operator combinations                ... NO
Transpose (ia|K)                         ... NO
Integral generator used                  ... LIBINT
Starting integral generation + trafo... 
Half trafo (segmented) done. Total time = 22.0 sec. integrals=  4.6 sec trafo= 16.6 sec
Integral generation and half transformation done ( 22.0 sec)

Reading or making V^(-1/2)          ... done (  0.8 sec)
Sorting IAK integrals               ... done ( 33.3 sec)

SHARK RI integral transformation done. Total time = 56.4 sec.

Opening buffers                              ... done

Starting loop over batches of integrals:

Operator 0  - window                       ... (  0-130)x(131-2939)
Operator 0  - Memory available             ...  4096 MB
Operator 0  - Memory needed per MO         ... 147.3 MB
Operator 0  - Number of orbitals per batch ... 2
Operator 0  - Number of batches            ... 1

OPERATOR  0   PASS   0:  MOs     0 ...    1 +    2 ...    3 +    4 ...    5 +    6 ...    7
                            +    8 ...    9 +   10 ...   11 +   12 ...   13 +   14 ...   15
                            +   16 ...   17 +   18 ...   19 +   20 ...   21 +   22 ...   23
                            +   24 ...   25 +   26 ...   27 +   28 ...   29 +   30 ...   31
                            +   32 ...   33 +   34 ...   35 +   36 ...   37 +   38 ...   39
                            +   40 ...   41 +   42 ...   43 +   44 ...   45 +   46 ...   47
                            +   48 ...   49 +   50 ...   51 +   52 ...   53 +   54 ...   55
                            +   56 ...   57 +   58 ...   59 +   60 ...   61 +   62 ...   63
                            +   64 ...   65 +   66 ...   67 +   68 ...   69 +   70 ...   71
                            +   72 ...   73 +   74 ...   75 +   76 ...   77 +   78 ...   79
                            +   80 ...   81 +   82 ...   83 +   84 ...   85 +   86 ...   87
                            +   88 ...   89 +   90 ...   91 +   92 ...   93 +   94 ...   95
                            +   96 ...   97 +   98 ...   99 +  100 ...  101 +  102 ...  103
                            +  104 ...  105 +  106 ...  107 +  108 ...  109 +  110 ...  111
                            +  112 ...  113 +  114 ...  115 +  116 ...  117 +  118 ...  119
                            +  120 ...  121 +  122 ...  123 +  124 ...  125 +  126 ...  127
                            +  128 ...  129 +  130 ...  130
  Reading integrals       ... ok
Time spent in pair loops =   513.638 sec

-----------------------------------------------
 RI-MP2 CORRELATION ENERGY:     -3.959213439 Eh
-----------------------------------------------


-------
TIMINGS
-------

Total time                :  577.569 sec
Integral trafo            :   56.987 sec (  9.9%)
I/O of integrals          :    0.392 sec (  0.1%)
K(i,j) operators          :    6.028 sec (  1.0%)
T(i,j) pair energies      :    0.595 sec (  0.1%)
V**(-1/2)                 :    6.943 sec (  1.2%)


---------------------------------------
MP2 TOTAL ENERGY:    -1535.738942613 Eh
---------------------------------------

Maximum memory used throughout the entire MP2-calculation: 1180.2 MB


-------------------------------------------------------------------------------
                          DFT DISPERSION CORRECTION                            
                                                                               
                                DFTD4 V3.4.0                                   
-------------------------------------------------------------------------------
The REV-DSD-PBEP86-2021 functional is recognized
A user input s6-coefficient scaling factor has been recognized
A user input a1-coefficient scaling factor has been recognized
A user input s8-coefficient scaling factor has been recognized
A user input a2-coefficient scaling factor has been recognized
A user input s9-coefficient scaling factor has been recognized
Active option DFTDOPT                   ...         5   

-------------------------   ----------------
Dispersion correction           -0.071168363
-------------------------   ----------------


-------------------------   --------------------
FINAL SINGLE POINT ENERGY     -1535.810110975226
-------------------------   --------------------



           ************************************************************
           *        Program running with 104 parallel MPI-processes   *
           *              working on a common directory               *
           ************************************************************

------------------------------------------------------------------------------
                              ORCA PROPERTY CALCULATIONS
------------------------------------------------------------------------------

GBWName                                 ... compas3x_hc_c40h22_0pent_1_qz_riri.gbw
Number of atoms                         ...     62
Number of basis functions               ...   2940
Max core memory                         ...   1024 MB

Electric properties:
Dipole moment                           ... YES
Quadrupole moment                       ...  NO
Static polarizability (Dipole/Dipole)   ...  NO
Static polarizability (Dipole/Quad.)    ...  NO
Static polarizability (Quad./Quad.)     ...  NO
Static polarizability (Velocity)        ...  NO

Atomic electric properties:
Dipole moment                           ...  NO
Quadrupole moment                       ...  NO
Static polarizability                   ...  NO

Choice of electric origin               ... Center of mass
Position of electric origin             ...     0.168737     0.069421    -0.036753

General magnetic properties:
Magnetizability                         ...  NO

EPR properties:
g-Tensor (aka g-matrix)                 ...  NO
Zero-Field splitting spin-orbit         ...  NO
Zero-field splitting spin-spin          ...  NO
Hyperfine couplings                     ...  NO (   0 nuclei)
Quadrupole couplings                    ...  NO (   0 nuclei)
Contact density                         ...  NO (   0 nuclei)

NMR properties:
Chemical shifts                         ...  NO (   0 nuclei)
Spin-rotation constants                 ...  NO (   0 nuclei)
Spin-spin couplings                     ...  NO (   0 nuclei,    0 pairs)

Choice of magnetic origin               ... GIAO
Position of magnetic origin             ...     0.000000     0.000000     0.000000

Properties with geometric perturbations:
SCF Hessian                             ...  NO
IR spectrum                             ...  NO
VCD spectrum                            ...  NO
X-ray spectroscopy properties:
SCF XES/XAS/RIXS spectra                ...  NO


-------------
DIPOLE MOMENT
-------------

Method             : SCF
Type of density    : Electron Density
Multiplicity       :   1
Irrep              :   0
Energy             : -1531.7797291732777012 Eh
Relativity type    : 
Basis              : AO
                                X                 Y                 Z
Electronic contribution:      5.574058592       2.356005755      -1.213685825
Nuclear contribution   :     -5.671678128      -2.330531118       1.235948400
                        -----------------------------------------
Total Dipole Moment    :     -0.097619536       0.025474638       0.022262575
                        -----------------------------------------
Magnitude (a.u.)       :      0.103315794
Magnitude (Debye)      :      0.262607878



--------------------
Rotational spectrum 
--------------------
 
Rotational constants in cm-1:             0.005504             0.003179             0.002335 
Rotational constants in MHz :           165.010275            95.317926            70.012454 

Dipole components along the rotational axes: 
x,y,z [a.u.] :     0.063196    -0.081723    -0.001328 
x,y,z [Debye]:     0.160630    -0.207724    -0.003375 

 

Dipole moment calculation done in   0.6 sec 

Maximum memory used throughout the entire PROP-calculation: 540.9 MB

--------------------------------
SUGGESTED CITATIONS FOR THIS RUN
--------------------------------

Below you find a list of papers that are relevant to this ORCA run
We neither can nor want to force you to cite these papers, but we appreciate if you do
You receive ORCA, which is the product of decades of hard work by many enthusiastic individuals, for free
The only thing we kindly ask in return is that you cite our papers,
We deeply appreciate it, if you show your appreciation for ORCA by not just citing the generic ORCA reference.

Please note that relegating all ORCA citations to the supporting information does *not* help us.
SI sections are not indexed - citations you put there will not count into any citation statistics
But we need these citations in order to attract the funding resources that allow us to do what we are doing

Therefore, if you are a happy ORCA user, please consider citing a few of the papers listed below in the main body of your paper

In addition to the list printed below, the program has created the file compas3x_hc_c40h22_0pent_1_qz_riri.bibtex that contains the list in bibtex format
You can import this file easily into all common literature databanks and citation aid programs


List of essential papers. We consider these as the minimum necessary citations

  1. Neese,F.
     Software update: the ORCA program system, version 5.0
     WIRES Comput. Molec. Sci., 2022 12(1)e1606
     doi.org/10.1002/wcms.1606

List of papers to cite with high priority. The work reported in these papers was absolutely
necessary for this run to complete.
Our perspective: the developers of density functionals and basis sets usually get cited in chemistry papers
Good! But without the algorithms to do something with them, the functionals or basis sets would not do anything.
Hence, in our opinion, the algorithm design and method developments papers are equally worthy of getting cited

  1. Neese,F.
     An improvement of the resolution of the identity approximation for the formation of the Coulomb matrix
     J. Comp. Chem., 2003 24(14)1740-1747
     doi.org/10.1002/jcc.10318
  2. Kossmann,S.; Neese,F.
     Comparison of two efficient approximate Hartee-Fock approaches
     Chem. Phys. Lett., 2009 481 240-243
     doi.org/10.1016/j.cplett.2009.09.073
  3. Neese,F.
     The SHARK Integral Generation and Digestion System
     J. Comp. Chem., 2022  1-16
     doi.org/10.1002/jcc.26942
  4. Caldeweyher,E.; Bannwarth,C.; Grimme,S.
     Extension of the D3 dispersion coefficient model
     J. Chem. Phys., 2017 147 034112
     doi.org/10.1063/1.4993215
  5. Caldeweyher,E.; Ehlert,S.; Hansen,A.; Neugebauer,H.; Spicher,S.; Bannwarth,C.; Grimme,S.
     A generally applicable atomic-charge dependent London dispersion correction
     J. Chem. Phys., 2019 150 154122
     doi.org/10.1063/1.5090222
  6. Caldeweyher,E.; Mewes,J.; Ehlert,S.; Grimme,S.
     Extension and evaluation of the D4 London-dispersion model for periodic systems
     Phys. Chem. Chem. Phys., 2020 22(16)8499-8512
     doi.org/10.1039/D0CP00502A
  7. Wittmann,L.; Gordiy,I.; Friede,M.; Helmich-Paris,B.; Grimme,S.; Hansen,A.; Bursch,M.
     Extension of the D3 and D4 London Dispersion Corrections to the full Actinides Series
     Phys. Chem. Chem. Phys., 2024 26(32)21379-21394
     doi.org/https://doi.org/10.1039/D4CP01514B 

List of suggested additional citations. These are papers that are important in the 'surrounding' of 
of this run, or papers that preceded the highly important papers. If you like your results we are grateful for a citation.

  1. Neese,F.
     The ORCA program system
     WIRES Comput. Molec. Sci., 2012 2(1)73-78
     doi.org/10.1002/wcms.81
  2. Neese,F.
     Software update: the ORCA program system, version 4.0
     WIRES Comput. Molec. Sci., 2018 8(1)1-6
     doi.org/10.1002/wcms.1327
  3. Neese,F.; Wennmohs,F.; Becker,U.; Riplinger,C.
     The ORCA quantum chemistry program package
     J. Chem. Phys., 2020 152 Art. No. L224108
     doi.org/10.1063/5.0004608

List of optional additional citations

  1. Neese,F.
     Approximate second-order SCF convergence for spin unrestricted wavefunctions
     Chem. Phys. Lett., 2000 325(1-3)93-98
     doi.org/10.1016/s0009-2614(00)00662-x

Timings for individual modules:

Sum of individual times          ...     1424.618 sec (=  23.744 min)
Startup calculation              ...       35.973 sec (=   0.600 min)   2.5 %
SCF iterations                   ...      772.753 sec (=  12.879 min)  54.2 %
Property calculations            ...       18.946 sec (=   0.316 min)   1.3 %
MP2 module                       ...      596.947 sec (=   9.949 min)  41.9 %
                             ****ORCA TERMINATED NORMALLY****
TOTAL RUN TIME: 0 days 0 hours 24 minutes 1 seconds 627 msec
