
                                 *****************
                                 * O   R   C   A *
                                 *****************

                                            #,                                       
                                            ###                                      
                                            ####                                     
                                            #####                                    
                                            ######                                   
                                           ########,                                 
                                     ,,################,,,,,                         
                               ,,#################################,,                 
                          ,,##########################################,,             
                       ,#########################################, ''#####,          
                    ,#############################################,,   '####,        
                  ,##################################################,,,,####,       
                ,###########''''           ''''###############################       
              ,#####''   ,,,,##########,,,,          '''####'''          '####       
            ,##' ,,,,###########################,,,                        '##       
           ' ,,###''''                  '''############,,,                           
         ,,##''                                '''############,,,,        ,,,,,,###''
      ,#''                                            '''#######################'''  
     '                                                          ''''####''''         
             ,#######,   #######,   ,#######,      ##                                
            ,#'     '#,  ##    ##  ,#'     '#,    #''#        ,####,   ,####,        
            ##       ##  ##   ,#'  ##            #'  '#       #'       #'  '#        
            ##       ##  #######   ##           ,######,      #####,   #    #        
            '#,     ,#'  ##    ##  '#,     ,#' ,#      #,     #,   #   #,  ,#        
             '#######'   ##     ##  '#######'  #'      '#     '####' # '####'        



                #########################################################
                #                        -***-                          #
                #          Department of theory and spectroscopy        #
                #                                                       #
                #                      Frank Neese                      #
                #                                                       #
                #     Directorship, Architecture, Infrastructure        #
                #                    SHARK, DRIVERS                     #
                #        Core code/Algorithms in most modules           #
                #                                                       #
                #        Max Planck Institute fuer Kohlenforschung      #
                #                Kaiser Wilhelm Platz 1                 #
                #                 D-45470 Muelheim/Ruhr                 #
                #                      Germany                          #
                #                                                       #
                #                  All rights reserved                  #
                #                        -***-                          #
                #########################################################


                         Program Version 6.0.1  -  RELEASE   -


 With contributions from (in alphabetic order):
[Max-Planck-Institut fuer Kohlenforschung]                               
  Daniel Aravena         : Magnetic Suceptibility                        
  Michael Atanasov       : Ab Initio Ligand Field Theory (pilot matlab implementation)
  Alexander A. Auer      : GIAO ZORA, VPT2 properties, NMR spectrum      
  Ute Becker             : All parallelization in ORCA, NUMFREQ, NUMCALC 
  Giovanni Bistoni       : ED, misc. LED, open-shell LED, HFLD           
  Martin Brehm           : Molecular dynamics                            
  Dmytro Bykov           : pre 5.0 version of the SCF Hessian            
  Marcos Casanova-Páez   : Triplet and SCS-CIS(D). UHF-(DLPNO)-IP/EA/STEOM-CCSD. UHF-CVS-IP/STEOM-CCSD   
  Vijay G. Chilkuri      : MRCI spin determinant printing, contributions to CSF-ICE 
  Pauline Colinet        : FMM embedding                                 
  Dipayan Datta          : RHF DLPNO-CCSD density                        
  Achintya Kumar Dutta   : EOM-CC, STEOM-CC                              
  Nicolas Foglia         : Exact transition moments, OPA infrastructure, MCD improvements    
  Dmitry Ganyushin       : Spin-Orbit,Spin-Spin,Magnetic field MRCI      
  Miquel Garcia-Rates    : C-PCM and meta-GGA Hessian, CCSD/C-PCM, Gaussian charge scheme 
  Tiago L. C. Gouveia    : GS-ROHF, GS-ROCIS                             
  Yang Guo               : DLPNO-NEVPT2, F12-NEVPT2, CIM, IAO-localization        
  Andreas Hansen         : Spin unrestricted coupled pair/coupled cluster methods 
  Ingolf Harden          : AUTO-CI MPn and infrastructure                
  Benjamin Helmich-Paris : MC-RPA, TRAH-(SCF,CASSCF), AVAS, COSX integrals, SCF dyn. polar. 
  Lee Huntington         : MR-EOM, pCC                                   
  Robert Izsak           : Overlap fitted RIJCOSX, COSX-SCS-MP3, EOM     
  Riya Kayal             : Wick's Theorem for AUTO-CI, AUTO-CI UHF-CCSDT 
  Emily Kempfer          : AUTO-CI, RHF CISDT and CCSDT                  
  Christian Kollmar      : KDIIS, OOCD, Brueckner-CCSD(T), CCSD density, CASPT2, CASPT2-K, improved NEVPT2 
  Axel Koslowski         : Symmetry handling                             
  Simone Kossmann        : meta-GGA functionals, TD-DFT gradient, OOMP2, (MP2 Hessian; deprecated post 5.0) 
  Lucas Lang             : DCDCAS                                        
  Marvin Lechner         : AUTO-CI (C++ implementation), FIC-MRCC        
  Spencer Leger          : CASSCF response                               
  Dagmar Lenk            : GEPOL surface, SMD, ORCA-2-JSON               
  Dimitrios Liakos       : Extrapolation schemes; Compound Job, initial MDCI parallelization 
  Dimitrios Manganas     : Further ROCIS development; embedding schemes. LFT, Crystal Embedding 
  Dimitrios Pantazis     : SARC Basis sets                               
  Anastasios Papadopoulos: AUTO-CI, single reference methods and gradients 
  Taras Petrenko         : pre 6.0 DFT Hessian and TD-DFT gradient, (ASA, deprecated), ECA, 1-Electron XAS/XES, NRVS 
  Peter Pinski           : DLPNO-MP2, DLPNO-MP2 Gradient                 
  Christoph Reimann      : Effective Core Potentials                     
  Marius Retegan         : Local ZFS, SOC                                
  Christoph Riplinger    : Optimizer, TS searches, QM/MM, DLPNO-CCSD(T), (RO)-DLPNO pert. Triples 
  Michael Roemelt        : Original ROCIS implementation                 
  Masaaki Saitow         : Open-shell DLPNO-CCSD energy and density      
  Barbara Sandhoefer     : DKH picture change effects                    
  Kantharuban Sivalingam : CASSCF convergence/infrastructure, NEVPT2 and variants, FIC-MRCI 
  Bernardo de Souza      : ESD, SOC TD-DFT                               
  Georgi L. Stoychev     : AutoAux, RI-MP2 NMR, DLPNO-MP2 response, X2C  
  Van Anh Tran           : RI-MP2 g-tensors                              
  Willem Van den Heuvel  : Paramagnetic NMR                              
  Zikuan Wang            : NOTCH, Electric field optimization            
  Frank Wennmohs         : Technical directorship and infrastructure     
  Hang Xu                : AUTO-CI-Response properties                   
                                                                         
[FACCTs GmbH]                                                            
  Markus Bursch, Miquel Garcia-Rates, Christoph Riplinger, Bernardo de Souza, Georgi L. Stoychev 
                                                                 
  APM, Basis sets (HGBS, AHGBS, def-TZVP (Ac-Lr), def2-XVPD (La-Lu)), CI-OPT, improved COSX, DLPNO-Multilevel,           
  DOCKER, DRACO, updates on ESD, GOAT, IRC, LR-CPCM, MBIS, meta-GGA TD-DFT gradient, ML-optimized integration grids, 
  MM, NACMEs, nearIR, NEB, NEB-TS, NL-DFT gradient (VV10), 2- and 3-layer-ONIOM, interface openCOSMO-RS, QMMM,   
  Crystal-QMMM, SF, symmetry and pop. for TD-DFT, r2SCAN hybrids, SOLVATOR                                   
                                                                         
[Other institutions]                                                     
  V. Asgeirsson          : NEB                                           
  Christoph Bannwarth    : sTDA-DFT, sTD-DFT, PBEh-3c, B97-3c, D3        
  Sebastian Ehlert       : rSCAN, r2SCAN, r2SCAN-3c, D4, dhf basis sets  
  Marvin Friede          : D4 for Fr, Ra, Ac-Lr                          
  Lars Goerigk           : TD-DFT with DH, B97 family of functionals     
  Stefan Grimme          : VdW corrections, initial TS optimization, DFT functionals, gCP, sTDA/sTD-DF 
  Waldemar Hujo          : DFT-NL                                        
  H. Jonsson             : NEB                                           
  Holger Kruse           : gCP                                           
  Marcel Mueller         : wB97X-3c, vDZP basis set                      
  Hagen Neugebauer       : wr2SCAN                                       
  Tobias Risthaus        : range-separated hybrid DFT                    
  Lukas Wittmann         : regularized MP2, r2SCAN double-hybrids, wr2SCAN        
                                                                         
We gratefully acknowledge several colleagues who have allowed us to      
interface, adapt or use parts of their codes:                            
  Ed Valeev, F. Pavosevic, A. Kumar             : LibInt (2-el integral package), F12 methods 
  Garnet Chan, S. Sharma, J. Yang, R. Olivares  : DMRG                   
  Ulf Ekstrom                                   : XCFun DFT Library      
  Mihaly Kallay                                 : mrcc  (arbitrary order and MRCC methods)
  Frank Weinhold                                : gennbo (NPA and NBO analysis)           
  Simon Mueller                                 : openCOSMO-RS                            
  Christopher J. Cramer and Donald G. Truhlar   : smd solvation model                     
  S Lehtola, MJT Oliveira, MAL Marques          : LibXC Library                           
  Liviu Ungur et al                             : ANISO software                          


 Your calculation uses the libint2 library for the computation of 2-el integrals
 For citations please refer to: http://libint.valeyev.net

 Your ORCA version has been built with support for libXC version: 6.2.2
 For citations please refer to: https://libxc.gitlab.io

 This ORCA versions uses:
   CBLAS   interface :  Fast vector & matrix operations
   LAPACKE interface :  Fast linear algebra routines
   SCALAPACK package :  Parallel linear algebra routines
   Shared memory     :  Shared parallel matrices
   BLAS/LAPACK       :  OpenBLAS 0.3.27  USE64BITINT DYNAMIC_ARCH NO_AFFINITY SapphireRapids SINGLE_THREADED
        Core in use  :  SapphireRapids
   Copyright (c) 2011-2014, The OpenBLAS Project


Warning! Weird basis set assignment to AuxJK basis!


***************************************
The coordinates will be read from file: /scratch/kx58/rs2200/dhdft/inputs/compas3x-xyzs/hc_c28h14_0pent_1.xyz
***************************************


Your calculation utilizes the atom-pairwise dispersion correction
based on EEQ partial charges (D4)


================================================================================

----- Orbital basis set information -----
Your calculation utilizes the basis: def2-QZVPP
   F. Weigend and R. Ahlrichs, Phys. Chem. Chem. Phys. 7, 3297 (2005).

----- AuxC basis set information -----
Your calculation utilizes the auxiliary basis: def2-QZVPP/C
  H-La, Hf-Rn : A. Hellweg, C. Hattig, S. Hofener and W. Klopper, Theor. Chem. Acc. 117, 587 (2007).
        Ce-Lu : J. Chmela and M. E. Harding, Mol. Phys. (2018).

----- AuxJK basis set information -----
Your calculation utilizes the auxiliary basis: def2-QZVPP/C
  H-La, Hf-Rn : A. Hellweg, C. Hattig, S. Hofener and W. Klopper, Theor. Chem. Acc. 117, 587 (2007).
        Ce-Lu : J. Chmela and M. E. Harding, Mol. Phys. (2018).

================================================================================
                                        WARNINGS
                       Please study these warnings very carefully!
================================================================================


WARNING: No MP2 level density has been requested!
         To calculate MP2 level properties use
         %mp2 Density relaxed end
         or
         %mp2 Density unrelaxed end
         Otherwise for double-hybrid DFT only the energy is correct!

================================================================================
                                       INPUT FILE
================================================================================
NAME = compas3x_hc_c28h14_0pent_1_qz_riri.inp
|  1> ! RKS revDSD-PBEP86-D4/2021 defgrid3  RIJK NOPOP NoFrozencore NoUseSym
|  2> 
|  3> %basis
|  4> Basis "def2-QZVPP"
|  5> AuxJK "def2-QZVPP/C"
|  6> AuxC "def2-QZVPP/C"
|  7> end
|  8> 
|  9> %method
| 10> ScalHFX 0.69
| 11> ScalDFX 0.31
| 12> ScalDFC 0.4038
| 13> ScalLDAC 0.4038
| 14> 
| 15> D4S6 0.4612
| 16> D4S8 0.0
| 17> D4A1 0.44
| 18> D4A2 3.60
| 19> end
| 20> 
| 21> %mp2
| 22> PS 0.5979
| 23> PT 0.0571
| 24> 
| 25> end
| 26> 
| 27> %pal
| 28> nprocs 104
| 29> end
| 30> 
| 31> *XYZFILE 0 1 /scratch/kx58/rs2200/dhdft/inputs/compas3x-xyzs/hc_c28h14_0pent_1.xyz
| 32> 
| 33>                          ****END OF INPUT****
================================================================================

                       ****************************
                       * Single Point Calculation *
                       ****************************

---------------------------------
CARTESIAN COORDINATES (ANGSTROEM)
---------------------------------
  C      1.520494   -1.092175    0.002556
  C      0.166965   -0.697550   -0.000605
  C     -0.167205    0.697502    0.000737
  C      0.860631    1.662554   -0.001859
  C      2.232675    1.282887   -0.004583
  C      2.571613   -0.132070    0.004960
  C      1.844798   -2.481985    0.005094
  C      0.820229   -3.424714   -0.002196
  C     -0.520276   -3.048502   -0.008800
  C     -0.860869   -1.662596   -0.004744
  C     -2.232915   -1.282930   -0.006414
  C     -2.571856    0.132016    0.004649
  C     -1.520733    1.092122    0.004382
  C     -1.845027    2.481929    0.009219
  C     -0.820457    3.424667    0.003819
  C      0.520046    3.048466   -0.003624
  C      3.880635   -0.582308    0.018039
  C      4.192919   -1.944236    0.023271
  C      3.200622   -2.880995    0.014979
  C     -1.548166   -4.018500   -0.019169
  C     -2.857200   -3.632994   -0.026376
  C     -3.195872   -2.277395   -0.019749
  C     -3.880887    0.582251    0.016907
  C     -4.193163    1.944171    0.024327
  C     -3.200852    2.880933    0.018932
  C      1.547943    4.018472   -0.013103
  C      2.856968    3.632967   -0.022177
  C      3.195633    2.277353   -0.017727
  H      1.072064   -4.476070   -0.002683
  H     -1.072288    4.476024    0.005093
  H      4.700504    0.117580    0.025392
  H      5.230463   -2.245490    0.033322
  H      3.430257   -3.936537    0.017047
  H     -1.274633   -5.063523   -0.022241
  H     -3.645652   -4.371637   -0.036418
  H     -4.243873   -2.024939   -0.026058
  H     -4.700783   -0.117631    0.021786
  H     -5.230719    2.245410    0.033562
  H     -3.430480    3.936470    0.022785
  H      1.274415    5.063501   -0.014423
  H      3.645412    4.371620   -0.032234
  H      4.243618    2.024881   -0.025675

----------------------------
CARTESIAN COORDINATES (A.U.)
----------------------------
  NO LB      ZA    FRAG     MASS         X           Y           Z
   0 C     6.0000    0    12.011    2.873318   -2.063911    0.004831
   1 C     6.0000    0    12.011    0.315519   -1.318178   -0.001143
   2 C     6.0000    0    12.011   -0.315971    1.318088    0.001393
   3 C     6.0000    0    12.011    1.626356    3.141772   -0.003513
   4 C     6.0000    0    12.011    4.219145    2.424304   -0.008661
   5 C     6.0000    0    12.011    4.859644   -0.249575    0.009372
   6 C     6.0000    0    12.011    3.486163   -4.690273    0.009625
   7 C     6.0000    0    12.011    1.550008   -6.471771   -0.004150
   8 C     6.0000    0    12.011   -0.983178   -5.760834   -0.016630
   9 C     6.0000    0    12.011   -1.626807   -3.141851   -0.008965
  10 C     6.0000    0    12.011   -4.219598   -2.424386   -0.012121
  11 C     6.0000    0    12.011   -4.860103    0.249474    0.008785
  12 C     6.0000    0    12.011   -2.873769    2.063811    0.008280
  13 C     6.0000    0    12.011   -3.486596    4.690165    0.017422
  14 C     6.0000    0    12.011   -1.550439    6.471682    0.007216
  15 C     6.0000    0    12.011    0.982745    5.760766   -0.006848
  16 C     6.0000    0    12.011    7.333338   -1.100402    0.034090
  17 C     6.0000    0    12.011    7.923468   -3.674074    0.043976
  18 C     6.0000    0    12.011    6.048299   -5.444292    0.028305
  19 C     6.0000    0    12.011   -2.925611   -7.593864   -0.036225
  20 C     6.0000    0    12.011   -5.399325   -6.865363   -0.049843
  21 C     6.0000    0    12.011   -6.039324   -4.303653   -0.037320
  22 C     6.0000    0    12.011   -7.333814    1.100295    0.031949
  23 C     6.0000    0    12.011   -7.923929    3.673950    0.045971
  24 C     6.0000    0    12.011   -6.048734    5.444174    0.035775
  25 C     6.0000    0    12.011    2.925188    7.593811   -0.024761
  26 C     6.0000    0    12.011    5.398887    6.865312   -0.041908
  27 C     6.0000    0    12.011    6.038871    4.303574   -0.033498
  28 H     1.0000    0     1.008    2.025908   -8.458547   -0.005071
  29 H     1.0000    0     1.008   -2.026331    8.458459    0.009625
  30 H     1.0000    0     1.008    8.882665    0.222194    0.047985
  31 H     1.0000    0     1.008    9.884142   -4.243361    0.062970
  32 H     1.0000    0     1.008    6.482247   -7.438976    0.032215
  33 H     1.0000    0     1.008   -2.408708   -9.568672   -0.042030
  34 H     1.0000    0     1.008   -6.889283   -8.261197   -0.068819
  35 H     1.0000    0     1.008   -8.019758   -3.826580   -0.049243
  36 H     1.0000    0     1.008   -8.883192   -0.222291    0.041170
  37 H     1.0000    0     1.008   -9.884626    4.243210    0.063424
  38 H     1.0000    0     1.008   -6.482667    7.438850    0.043058
  39 H     1.0000    0     1.008    2.408296    9.568630   -0.027256
  40 H     1.0000    0     1.008    6.888831    8.261165   -0.060914
  41 H     1.0000    0     1.008    8.019276    3.826471   -0.048519

--------------------------------
INTERNAL COORDINATES (ANGSTROEM)
--------------------------------
 C      0   0   0     0.000000000000     0.00000000     0.00000000
 C      1   0   0     1.409886406365     0.00000000     0.00000000
 C      2   1   0     1.434518078555   119.72471986     0.00000000
 C      3   2   1     1.409885565004   119.72460173     0.33061658
 C      4   3   2     1.423608787527   121.33689848   359.94216656
 C      1   2   3     1.423607256184   121.33696136   359.89996077
 C      1   2   3     1.427148577016   119.38889000   179.82039219
 C      7   1   2     1.392311328372   119.48214415     0.31212280
 C      8   7   1     1.392311541837   121.70623244   359.84750123
 C      2   1   3     1.409884631982   120.55060936   180.01554596
 C     10   2   1     1.423608088698   121.33704199   179.92636302
 C     11  10   2     1.455016943973   118.93705425   359.62110053
 C      3   2   1     1.409885424336   119.72478485   180.31849458
 C     13   3   2     1.427148717573   119.38849943   179.83767070
 C     14  13   3     1.392310307228   119.48255343     0.30448425
 C     15  14  13     1.392311660504   121.70622279   359.87394844
 C      6   1   2     1.384349959971   118.60996800   179.52762096
 C     17   6   1     1.397282399168   121.89559619     0.26934504
 C     18  17   6     1.364638268533   120.43413595     0.02571254
 C      9   8   7     1.413351530973   120.98409832   179.85757903
 C     20   9   8     1.364637214660   120.25147622   180.04053118
 C     11  10   2     1.384350463325   118.60947279   179.56401207
 C     12  11  10     1.384350282673   122.45348420   180.64185143
 C     23  12  11     1.397281486441   121.89583609   180.15097961
 C     24  23  12     1.364636173999   120.43432425     0.03330834
 C     16  15  14     1.413355054513   120.98454867   179.80769210
 C     26  16  15     1.364640135950   120.25160342   180.09044072
 C      5   4   3     1.384349633327   118.60984758   179.49691415
 H      8   7   1     1.081097579176   119.14708555   179.85112112
 H     15  14  13     1.081097837660   119.14727463   179.85252503
 H     17   6   1     1.077998981255   120.53534781   180.31952592
 H     18  17   6     1.080440765699   119.10586650   179.98652727
 H     19  18  17     1.080233561193   121.07586932   179.88459654
 H     20   9   8     1.080232972167   118.67257609     0.00000000
 H     21  20   9     1.080440440731   120.45994098   179.87031412
 H     22  11  10     1.077998069539   120.53527932   180.28826723
 H     23  12  11     1.078001556989   120.53571372     0.19548956
 H     24  23  12     1.080441264576   119.10540863   179.98295240
 H     25  24  23     1.080232391438   121.07597916   179.88919030
 H     26  16  15     1.080233867505   118.67243677     0.00000000
 H     27  26  16     1.080441861577   120.45977762   179.82795952
 H     28   5   4     1.077997457804   120.53486957   180.34146075

---------------------------
INTERNAL COORDINATES (A.U.)
---------------------------
 C      0   0   0     0.000000000000     0.00000000     0.00000000
 C      1   0   0     2.664299187967     0.00000000     0.00000000
 C      2   1   0     2.710846302627   119.72471986     0.00000000
 C      3   2   1     2.664297598027   119.72460173     0.33061658
 C      4   3   2     2.690230730269   121.33689848   359.94216656
 C      1   2   3     2.690227836450   121.33696136   359.89996077
 C      1   2   3     2.696919962976   119.38889000   179.82039219
 C      7   1   2     2.631087103780   119.48214415     0.31212280
 C      8   7   1     2.631087507170   121.70623244   359.84750123
 C      2   1   3     2.664295834870   120.55060936   180.01554596
 C     10   2   1     2.690229409675   121.33704199   179.92636302
 C     11  10   2     2.749583544323   118.93705425   359.62110053
 C      3   2   1     2.664297332203   119.72478485   180.31849458
 C     13   3   2     2.696920228590   119.38849943   179.83767070
 C     14  13   3     2.631085174097   119.48255343     0.30448425
 C     15  14  13     2.631087731418   121.70622279   359.87394844
 C      6   1   2     2.616042297850   118.60996800   179.52762096
 C     17   6   1     2.640481066175   121.89559619     0.26934504
 C     18  17   6     2.578792599397   120.43413595     0.02571254
 C      9   8   7     2.670847324498   120.98409832   179.85757903
 C     20   9   8     2.578790607865   120.25147622   180.04053118
 C     11  10   2     2.616043249052   118.60947279   179.56401207
 C     12  11  10     2.616042907668   122.45348420   180.64185143
 C     23  12  11     2.640479341373   121.89583609   180.15097961
 C     24  23  12     2.578788641300   120.43432425     0.03330834
 C     16  15  14     2.670853983023   120.98454867   179.80769210
 C     26  16  15     2.578796128303   120.25160342   180.09044072
 C      5   4   3     2.616041680582   118.60984758   179.49691415
 H      8   7   1     2.042978348689   119.14708555   179.85112112
 H     15  14  13     2.042978837152   119.14727463   179.85252503
 H     17   6   1     2.037122847218   120.53534781   180.31952592
 H     18  17   6     2.041737151095   119.10586650   179.98652727
 H     19  18  17     2.041345591325   121.07586932   179.88459654
 H     20   9   8     2.041344478227   118.67257609     0.00000000
 H     21  20   9     2.041736536995   120.45994098   179.87031412
 H     22  11  10     2.037121124324   120.53527932   180.28826723
 H     23  12  11     2.037127714650   120.53571372     0.19548956
 H     24  23  12     2.041738093837   119.10540863   179.98295240
 H     25  24  23     2.041343380808   121.07597916   179.88919030
 H     26  16  15     2.041346170171   118.67243677     0.00000000
 H     27  26  16     2.041739222004   120.45977762   179.82795952
 H     28   5   4     2.037119968313   120.53486957   180.34146075

---------------------
BASIS SET INFORMATION
---------------------
There are 2 groups of distinct atoms

 Group   1 Type C   : 15s8p3d2f1g contracted to 7s4p3d2f1g pattern {8211111/5111/111/11/1}
 Group   2 Type H   : 7s3p2d1f contracted to 4s3p2d1f pattern {4111/111/11/1}

Atom   0C    basis set group =>   1
Atom   1C    basis set group =>   1
Atom   2C    basis set group =>   1
Atom   3C    basis set group =>   1
Atom   4C    basis set group =>   1
Atom   5C    basis set group =>   1
Atom   6C    basis set group =>   1
Atom   7C    basis set group =>   1
Atom   8C    basis set group =>   1
Atom   9C    basis set group =>   1
Atom  10C    basis set group =>   1
Atom  11C    basis set group =>   1
Atom  12C    basis set group =>   1
Atom  13C    basis set group =>   1
Atom  14C    basis set group =>   1
Atom  15C    basis set group =>   1
Atom  16C    basis set group =>   1
Atom  17C    basis set group =>   1
Atom  18C    basis set group =>   1
Atom  19C    basis set group =>   1
Atom  20C    basis set group =>   1
Atom  21C    basis set group =>   1
Atom  22C    basis set group =>   1
Atom  23C    basis set group =>   1
Atom  24C    basis set group =>   1
Atom  25C    basis set group =>   1
Atom  26C    basis set group =>   1
Atom  27C    basis set group =>   1
Atom  28H    basis set group =>   2
Atom  29H    basis set group =>   2
Atom  30H    basis set group =>   2
Atom  31H    basis set group =>   2
Atom  32H    basis set group =>   2
Atom  33H    basis set group =>   2
Atom  34H    basis set group =>   2
Atom  35H    basis set group =>   2
Atom  36H    basis set group =>   2
Atom  37H    basis set group =>   2
Atom  38H    basis set group =>   2
Atom  39H    basis set group =>   2
Atom  40H    basis set group =>   2
Atom  41H    basis set group =>   2
---------------------------------
AUXILIARY/C BASIS SET INFORMATION
---------------------------------
There are 2 groups of distinct atoms

 Group   1 Type C   : 9s8p7d5f3g1h contracted to 9s8p7d5f3g1h pattern {111111111/11111111/1111111/11111/111/1}
 Group   2 Type H   : 6s4p3d2f1g contracted to 6s4p3d2f1g pattern {111111/1111/111/11/1}

Atom   0C    basis set group =>   1
Atom   1C    basis set group =>   1
Atom   2C    basis set group =>   1
Atom   3C    basis set group =>   1
Atom   4C    basis set group =>   1
Atom   5C    basis set group =>   1
Atom   6C    basis set group =>   1
Atom   7C    basis set group =>   1
Atom   8C    basis set group =>   1
Atom   9C    basis set group =>   1
Atom  10C    basis set group =>   1
Atom  11C    basis set group =>   1
Atom  12C    basis set group =>   1
Atom  13C    basis set group =>   1
Atom  14C    basis set group =>   1
Atom  15C    basis set group =>   1
Atom  16C    basis set group =>   1
Atom  17C    basis set group =>   1
Atom  18C    basis set group =>   1
Atom  19C    basis set group =>   1
Atom  20C    basis set group =>   1
Atom  21C    basis set group =>   1
Atom  22C    basis set group =>   1
Atom  23C    basis set group =>   1
Atom  24C    basis set group =>   1
Atom  25C    basis set group =>   1
Atom  26C    basis set group =>   1
Atom  27C    basis set group =>   1
Atom  28H    basis set group =>   2
Atom  29H    basis set group =>   2
Atom  30H    basis set group =>   2
Atom  31H    basis set group =>   2
Atom  32H    basis set group =>   2
Atom  33H    basis set group =>   2
Atom  34H    basis set group =>   2
Atom  35H    basis set group =>   2
Atom  36H    basis set group =>   2
Atom  37H    basis set group =>   2
Atom  38H    basis set group =>   2
Atom  39H    basis set group =>   2
Atom  40H    basis set group =>   2
Atom  41H    basis set group =>   2
----------------------------------
AUXILIARY/JK BASIS SET INFORMATION
----------------------------------
There are 2 groups of distinct atoms

 Group   1 Type C   : 9s8p7d5f3g1h contracted to 9s8p7d5f3g1h pattern {111111111/11111111/1111111/11111/111/1}
 Group   2 Type H   : 6s4p3d2f1g contracted to 6s4p3d2f1g pattern {111111/1111/111/11/1}

Atom   0C    basis set group =>   1
Atom   1C    basis set group =>   1
Atom   2C    basis set group =>   1
Atom   3C    basis set group =>   1
Atom   4C    basis set group =>   1
Atom   5C    basis set group =>   1
Atom   6C    basis set group =>   1
Atom   7C    basis set group =>   1
Atom   8C    basis set group =>   1
Atom   9C    basis set group =>   1
Atom  10C    basis set group =>   1
Atom  11C    basis set group =>   1
Atom  12C    basis set group =>   1
Atom  13C    basis set group =>   1
Atom  14C    basis set group =>   1
Atom  15C    basis set group =>   1
Atom  16C    basis set group =>   1
Atom  17C    basis set group =>   1
Atom  18C    basis set group =>   1
Atom  19C    basis set group =>   1
Atom  20C    basis set group =>   1
Atom  21C    basis set group =>   1
Atom  22C    basis set group =>   1
Atom  23C    basis set group =>   1
Atom  24C    basis set group =>   1
Atom  25C    basis set group =>   1
Atom  26C    basis set group =>   1
Atom  27C    basis set group =>   1
Atom  28H    basis set group =>   2
Atom  29H    basis set group =>   2
Atom  30H    basis set group =>   2
Atom  31H    basis set group =>   2
Atom  32H    basis set group =>   2
Atom  33H    basis set group =>   2
Atom  34H    basis set group =>   2
Atom  35H    basis set group =>   2
Atom  36H    basis set group =>   2
Atom  37H    basis set group =>   2
Atom  38H    basis set group =>   2
Atom  39H    basis set group =>   2
Atom  40H    basis set group =>   2
Atom  41H    basis set group =>   2


           ************************************************************
           *        Program running with 104 parallel MPI-processes   *
           *              working on a common directory               *
           ************************************************************
------------------------------------------------------------------------------
                             ORCA STARTUP CALCULATIONS
                           -- RI-GTO INTEGRALS CHOSEN --
------------------------------------------------------------------------------
------------------------------------------------------------------------------
                   ___                                                        
                  /   \      - P O W E R E D   B Y -                         
                 /     \                                                     
                 |  |  |   _    _      __       _____    __    __             
                 |  |  |  | |  | |    /  \     |  _  \  |  |  /  |          
                  \  \/   | |  | |   /    \    | | | |  |  | /  /          
                 / \  \   | |__| |  /  /\  \   | |_| |  |  |/  /          
                |  |  |   |  __  | /  /__\  \  |    /   |      \           
                |  |  |   | |  | | |   __   |  |    \   |  |\   \          
                \     /   | |  | | |  |  |  |  | |\  \  |  | \   \       
                 \___/    |_|  |_| |__|  |__|  |_| \__\ |__|  \__/        
                                                                              
                      - O R C A' S   B I G   F R I E N D -                    
                                      &                                       
                       - I N T E G R A L  F E E D E R -                       
                                                                              
 v1 FN, 2020, v2 2021, v3 2022-2024                                           
------------------------------------------------------------------------------


----------------------
SHARK INTEGRAL PACKAGE
----------------------

Number of atoms                             ...     42
Number of basis functions                   ...   2016
Number of shells                            ...    616
Maximum angular momentum                    ...      4
Integral batch strategy                     ... SHARK/LIBINT Hybrid
RI-J (if used) integral strategy            ... SPLIT-RIJ (Revised 2003 algorithm where possible)
Printlevel                                  ...      1
Contraction scheme used                     ... SEGMENTED contraction
Prescreening option                         ... SCHWARTZ
   Thresh                                   ... 1.000e-10
   Tcut                                     ... 1.000e-11
   Tpresel                                  ... 1.000e-11 
Coulomb Range Separation                    ... NOT USED
Exchange Range Separation                   ... NOT USED
Multipole approximations                    ... NOT USED
Finite Nucleus Model                        ... NOT USED
CABS basis                                  ... NOT available
Auxiliary Coulomb fitting basis             ... NOT available
Auxiliary J/K fitting basis                 ... AVAILABLE
   # of basis functions in Aux-JK           ...   4732
   # of shells in Aux-JK                    ...   1148
   Maximum angular momentum in Aux-JK       ...      5
Auxiliary Correlation fitting basis         ... AVAILABLE
   # of basis functions in Aux-C            ...   4732
   # of shells in Aux-C                     ...   1148
   Maximum angular momentum in Aux-C        ...      5
Auxiliary 'external' fitting basis          ... NOT available

Checking pre-screening integrals            ... done (  0.0 sec) Dimension = 616
Check shell pair data                       ... done (  0.0 sec)
Shell pair information
Shell pair cut-off parameter TPreSel        ...   1.0e-11
Total number of shell pairs                 ...    190036
Shell pairs after pre-screening             ...    112013
Total number of primitive shell pairs       ...    495691
Primitive shell pairs kept                  ...    198740
          la=0 lb=0:  16856 shell pairs
          la=1 lb=0:  25244 shell pairs
          la=1 lb=1:   8776 shell pairs
          la=2 lb=0:  15198 shell pairs
          la=2 lb=1:  11402 shell pairs
          la=2 lb=2:   3658 shell pairs
          la=3 lb=0:   9136 shell pairs
          la=3 lb=1:   6870 shell pairs
          la=3 lb=2:   4162 shell pairs
          la=3 lb=3:   1282 shell pairs
          la=4 lb=0:   3664 shell pairs
          la=4 lb=1:   2806 shell pairs
          la=4 lb=2:   1728 shell pairs
          la=4 lb=3:   1006 shell pairs
          la=4 lb=4:    225 shell pairs

Calculating one electron integrals          ... done (  1.0 sec)
Calculating RI/JK V-Matrix + Cholesky decomp... done (  1.4 sec)
Calculating RI/C V-Matrix + Cholesky decomp.... done (  1.4 sec)
Calculating Nuclear repulsion               ... done (  0.0 sec) ENN=   2335.580540093174 Eh

Diagonalization of the overlap matrix:
Smallest eigenvalue                        ... 4.275e-08
Time for diagonalization                   ...    0.678 sec
Threshold for overlap eigenvalues          ... 1.000e-07
Number of eigenvalues below threshold      ... 2
Smallest eigenvalue above threshold        ... 1.764e-06

IMPORTANT:
Smallest eigenvalue of S below the DiffSThresh (1.000e-06) while
Thresh>1e-12 and/or TCut>1e-13! In order to avoid SCF convergence issues,
Thresh will be set to at least 1e-12 and TCut to at least 1e-13.
This can be turned off by adding %SCF DiffSThresh -1 END to the input.

Time for construction of square roots      ...    0.492 sec
Total time needed                          ...    1.222 sec

-------------------
DFT GRID GENERATION
-------------------

General Integration Accuracy     IntAcc      ... 4.959
Radial Grid Type                 RadialGrid  ... OptM3 with GC (2021)
Angular Grid (max. ang.)         AngularGrid ... 6 (Lebedev-590)
Angular grid pruning method      GridPruning ... 4 (adaptive)
Weight generation scheme         WeightScheme... mBecke (2022)
Basis function cutoff            BFCut       ... 1.0000e-10
Integration weight cutoff        WCut        ... 1.0000e-14
Partially contracted basis set               ... off
Rotationally invariant grid construction     ... off
Angular grids for H and He will be reduced by one unit
Diffuse basis detected: some atoms will have their outermost
                        angular grid increased by 1.

Total number of grid points                  ...   523794
Total number of batches                      ...     8203
Average number of points per batch           ...       63
Average number of grid points per atom       ...    12471
Initializing property integral containers    ... done (  0.0 sec)

SHARK setup successfully completed in  12.9 seconds

Maximum memory used throughout the entire STARTUP-calculation: 229.9 MB


           ************************************************************
           *        Program running with 104 parallel MPI-processes   *
           *              working on a common directory               *
           ************************************************************
-------------------------------------------------------------------------------
                                 ORCA GUESS
                   Start orbitals & Density for SCF / CASSCF
-------------------------------------------------------------------------------

------------
SCF SETTINGS
------------
Hamiltonian:
 Density Functional     Method          .... DFT(GTOs)
 Exchange Functional    Exchange        .... PBE
   PBE kappa parameter   XKappa         ....  0.804000
   PBE mue parameter    XMuePBE         ....  0.219520
 Correlation Functional Correlation     .... P86
 LDA part of GGA corr.  LDAOpt          .... VWN-5
 Gradients option       PostSCFGGA      .... off
 Hybrid DFT is turned on
   Fraction HF Exchange ScalHFX         ....  0.690000
   Scaling of DF-GGA-X  ScalDFX         ....  0.310000
   Scaling of DF-GGA-C  ScalDFC         ....  0.403800
   Scaling of DF-LDA-C  ScalLDAC        ....  0.403800
   Perturbative correction              ....  1.000000
 RI-approximation to the Coulomb term is turned on
   Number of AuxJK basis functions      .... 4732
   RI-JK (J+K treated both via RI)      .... on


General Settings:
 Integral files         IntName         .... compas3x_hc_c28h14_0pent_1_qz_riri
 Hartree-Fock type      HFTyp           .... RHF
 Total Charge           Charge          ....    0
 Multiplicity           Mult            ....    1
 Number of Electrons    NEL             ....  182
 Basis Dimension        Dim             .... 2016
 Nuclear Repulsion      ENuc            ....   2335.5805400932 Eh

Convergence Acceleration:
 AO-DIIS                CNVDIIS         .... on
   Start iteration      DIISMaxIt       ....    12
   Startup error        DIISStart       ....  0.200000
   # of expansion vecs  DIISMaxEq       ....     5
   Bias factor          DIISBfac        ....   1.050
   Max. coefficient     DIISMaxC        ....  10.000
 MO-DIIS                CNVKDIIS        .... off
 Trust-Rad. Augm. Hess. CNVTRAH         .... auto
   Auto Start mean grad. ratio tolernc. ....  1.125000
   Auto Start start iteration           ....    50
   Auto Start num. interpolation iter.  ....    10
   Max. Number of Micro iterations      ....    24
   Max. Number of Macro iterations      .... Maxiter - #DIIS iter
   Number of Davidson start vectors     ....     2
   Converg. threshold    (grad. norm)   ....   5.000e-05
   Grad. Scal. Fac. for Micro threshold ....   0.100
   Minimum threshold for Micro iter.    ....   1.000e-02
   NR start threshold (gradient norm)   ....   1.000e-04
   Initial trust radius                 ....   0.400
   Minimum AH scaling param. (alpha)    ....   1.000
   Maximum AH scaling param. (alpha)    .... 1000.000
   Quad. conv. algorithm                .... NR
   White noise on init. David. guess    .... on
   Maximum white noise                  ....   0.010
   Pseudo random numbers                .... off
   Inactive MOs                         .... canonical
   Orbital update algorithm             .... Taylor
   Preconditioner                       .... Diag
   Full preconditioner red. dimension   ....   250
 SOSCF                  CNVSOSCF        .... on
   Start iteration      SOSCFMaxIt      ....   150
   Startup grad/error   SOSCFStart      ....  0.003300
   Hessian update       SOSCFHessUp     .... L-BFGS
 Level Shifting         CNVShift        .... on
   Level shift para.    LevelShift      ....    0.2500
   Turn off err/grad.   ShiftErr        ....    0.0010
 Zerner damping         CNVZerner       .... off
 Static damping         CNVDamp         .... on
   Fraction old density DampFac         ....    0.7000
   Max. Damping (<1)    DampMax         ....    0.9800
   Min. Damping (>=0)   DampMin         ....    0.0000
   Turn off err/grad.   DampErr         ....    0.1000

SCF Procedure:
 Maximum # iterations   MaxIter         ....   125
 SCF integral mode      SCFMode         .... Direct
   Integral package                     .... SHARK and LIBINT hybrid scheme
 Reset frequency        DirectResetFreq ....    20
 Integral Threshold     Thresh          ....  1.000e-12 Eh
 Primitive CutOff       TCut            ....  1.000e-13 Eh

Convergence Tolerance:
 Convergence Check Mode ConvCheckMode   .... Total+1el-Energy
 Convergence forced     ConvForced      .... 0
 Energy Change          TolE            ....  1.000e-06 Eh
 1-El. energy change                    ....  1.000e-03 Eh
 Orbital Gradient       TolG            ....  5.000e-05
 Orbital Rotation angle TolX            ....  5.000e-05
 DIIS Error             TolErr          ....  1.000e-06

------------------------------
INITIAL GUESS: MODEL POTENTIAL
------------------------------
Loading Hartree-Fock densities                     ... done
Calculating cut-offs                               ... done
Initializing the effective Hamiltonian             ... done
Setting up the integral package (SHARK)            ... done
Starting the Coulomb interaction                   ... done (   0.4 sec)
Making the grid                                    ... done (   0.5 sec)
Mapping shells                                     ... done
Starting the XC term evaluation                    ... done (   0.1 sec)
  promolecular density results
     # of electrons  =    182.027488059
     EX              =   -147.580482508
     EC              =      0.219961303
     EX+EC           =   -147.360521205
Transforming the Hamiltonian                       ... done (   0.3 sec)
Diagonalizing the Hamiltonian                      ... done (   0.5 sec)
Back transforming the eigenvectors                 ... done (   0.2 sec)
Now organizing SCF variables                       ... done
                      ------------------
                      INITIAL GUESS DONE (   2.5 sec)
                      ------------------
             **** ENERGY FILE WAS UPDATED (compas3x_hc_c28h14_0pent_1_qz_riri.en.tmp) ****
Finished Guess after  18.8 sec
Maximum memory used throughout the entire GUESS-calculation: 244.4 MB


           ************************************************************
           *        Program running with 104 parallel MPI-processes   *
           *              working on a common directory               *
           ************************************************************

-------------------------------------------------------------------------------------------
                                      ORCA LEAN-SCF
                              memory conserving SCF solver
-------------------------------------------------------------------------------------------

----------------------------------------D-I-I-S--------------------------------------------
Iteration    Energy (Eh)           Delta-E    RMSDP     MaxDP     DIISErr   Damp  Time(sec)
-------------------------------------------------------------------------------------------
    1    -1070.8816905141861753     0.00e+00  2.54e-04  3.01e-02  1.47e-01  0.700  20.0
    2    -1070.6941167666991532     1.88e-01  2.21e-04  1.85e-02  1.31e-01  0.700  21.0
                               ***Turning on AO-DIIS***
    3    -1070.8145860688150606    -1.20e-01  1.69e-04  1.51e-02  7.84e-02  0.700  19.5
    4    -1071.0462466986050458    -2.32e-01  3.58e-04  4.90e-02  4.07e-02  0.000  19.2
    5    -1071.4260320205025891    -3.80e-01  8.77e-05  9.54e-03  3.58e-02  0.000  18.7
    6    -1071.4423319042434741    -1.63e-02  5.15e-05  6.27e-03  1.57e-02  0.000  18.6
    7    -1071.4462265896936515    -3.89e-03  1.95e-05  2.40e-03  5.20e-03  0.000  18.5
                              *** Initializing SOSCF ***
---------------------------------------S-O-S-C-F--------------------------------------
Iteration    Energy (Eh)           Delta-E    RMSDP     MaxDP     MaxGrad    Time(sec)
--------------------------------------------------------------------------------------
    8    -1071.4466822241238333    -4.56e-04  6.69e-06  5.33e-04  1.11e-03    20.1
    9    -1071.4467285594078021    -4.63e-05  5.14e-06  4.06e-04  5.42e-04    19.2
   10    -1071.4467403468088378    -1.18e-05  3.96e-06  2.55e-04  3.38e-04    18.8
   11    -1071.4467427578961178    -2.41e-06  1.43e-06  1.01e-04  2.31e-04    18.6
   12    -1071.4467438685724119    -1.11e-06  7.49e-07  5.03e-05  6.49e-05    18.3
   13    -1071.4467439639479380    -9.54e-08  2.00e-07  1.70e-05  2.33e-05    18.2
                 **** Energy Check signals convergence ****

               *****************************************************
               *                     SUCCESS                       *
               *           SCF CONVERGED AFTER  13 CYCLES          *
               *****************************************************

             **** ENERGY FILE WAS UPDATED (compas3x_hc_c28h14_0pent_1_qz_riri.en.tmp) ****

----------------
TOTAL SCF ENERGY
----------------

Total Energy       :      -1071.44674396394794 Eh          -29155.54814 eV

Components:
Nuclear Repulsion  :       2335.58054009317402 Eh           63554.37754 eV
Electronic Energy  :      -3407.02728405712196 Eh          -92709.92568 eV
One Electron Energy:      -6093.54639066579693 Eh         -165813.82710 eV
Two Electron Energy:       2686.51910660867497 Eh           73103.90142 eV

Virial components:
Potential Energy   :      -2140.57142646908687 Eh          -58247.90978 eV
Kinetic Energy     :       1069.12468250513916 Eh           29092.36164 eV
Virial Ratio       :          2.00217192764961

DFT components:
N(Alpha)           :       91.000041778665 electrons
N(Beta)            :       91.000041778665 electrons
N(Total)           :      182.000083557329 electrons
E(X)               :      -46.503113535652 Eh       
E(C)               :       -2.726241677577 Eh       
E(XC)              :      -49.229355213229 Eh       

---------------
SCF CONVERGENCE
---------------

  Last Energy change         ...    9.5376e-08  Tolerance :   1.0000e-06
  Last MAX-Density change    ...    1.6984e-05  Tolerance :   1.0000e-05
  Last RMS-Density change    ...    1.9971e-07  Tolerance :   1.0000e-06
  Last DIIS Error            ...    1.1110e-03  Tolerance :   1.0000e-06
  Last Orbital Gradient      ...    2.3291e-05  Tolerance :   5.0000e-05
  Last Orbital Rotation      ...    7.7775e-05  Tolerance :   5.0000e-05


----------------
ORBITAL ENERGIES
----------------

  NO   OCC          E(Eh)            E(eV) 
   0   2.0000     -10.837122      -294.8931 
   1   2.0000     -10.837116      -294.8929 
   2   2.0000     -10.836465      -294.8752 
   3   2.0000     -10.836454      -294.8749 
   4   2.0000     -10.836311      -294.8710 
   5   2.0000     -10.835609      -294.8519 
   6   2.0000     -10.833962      -294.8071 
   7   2.0000     -10.833954      -294.8069 
   8   2.0000     -10.833792      -294.8025 
   9   2.0000     -10.833713      -294.8003 
  10   2.0000     -10.832010      -294.7540 
  11   2.0000     -10.832008      -294.7539 
  12   2.0000     -10.831970      -294.7529 
  13   2.0000     -10.831970      -294.7529 
  14   2.0000     -10.823156      -294.5130 
  15   2.0000     -10.823155      -294.5130 
  16   2.0000     -10.823154      -294.5130 
  17   2.0000     -10.823153      -294.5130 
  18   2.0000     -10.822553      -294.4966 
  19   2.0000     -10.822552      -294.4966 
  20   2.0000     -10.822350      -294.4911 
  21   2.0000     -10.822347      -294.4910 
  22   2.0000     -10.822344      -294.4910 
  23   2.0000     -10.822342      -294.4909 
  24   2.0000     -10.821617      -294.4712 
  25   2.0000     -10.821616      -294.4711 
  26   2.0000     -10.821615      -294.4711 
  27   2.0000     -10.821614      -294.4711 
  28   2.0000      -1.106716       -30.1153 
  29   2.0000      -1.071530       -29.1578 
  30   2.0000      -1.067332       -29.0436 
  31   2.0000      -1.036203       -28.1965 
  32   2.0000      -1.009423       -27.4678 
  33   2.0000      -1.002484       -27.2790 
  34   2.0000      -0.977822       -26.6079 
  35   2.0000      -0.966303       -26.2945 
  36   2.0000      -0.930736       -25.3266 
  37   2.0000      -0.924317       -25.1520 
  38   2.0000      -0.909074       -24.7372 
  39   2.0000      -0.908783       -24.7293 
  40   2.0000      -0.894347       -24.3364 
  41   2.0000      -0.838559       -22.8184 
  42   2.0000      -0.819582       -22.3020 
  43   2.0000      -0.790611       -21.5136 
  44   2.0000      -0.781233       -21.2584 
  45   2.0000      -0.779053       -21.1991 
  46   2.0000      -0.766707       -20.8631 
  47   2.0000      -0.741234       -20.1700 
  48   2.0000      -0.699947       -19.0465 
  49   2.0000      -0.699258       -19.0278 
  50   2.0000      -0.680221       -18.5097 
  51   2.0000      -0.665287       -18.1034 
  52   2.0000      -0.651196       -17.7199 
  53   2.0000      -0.648172       -17.6377 
  54   2.0000      -0.617714       -16.8089 
  55   2.0000      -0.603880       -16.4324 
  56   2.0000      -0.595221       -16.1968 
  57   2.0000      -0.583794       -15.8858 
  58   2.0000      -0.583633       -15.8814 
  59   2.0000      -0.569446       -15.4954 
  60   2.0000      -0.566167       -15.4062 
  61   2.0000      -0.552210       -15.0264 
  62   2.0000      -0.536415       -14.5966 
  63   2.0000      -0.535553       -14.5731 
  64   2.0000      -0.531832       -14.4719 
  65   2.0000      -0.530552       -14.4371 
  66   2.0000      -0.523394       -14.2423 
  67   2.0000      -0.506155       -13.7732 
  68   2.0000      -0.502674       -13.6784 
  69   2.0000      -0.494242       -13.4490 
  70   2.0000      -0.490354       -13.3432 
  71   2.0000      -0.488991       -13.3061 
  72   2.0000      -0.483113       -13.1462 
  73   2.0000      -0.469768       -12.7831 
  74   2.0000      -0.465177       -12.6581 
  75   2.0000      -0.453941       -12.3524 
  76   2.0000      -0.447405       -12.1745 
  77   2.0000      -0.443666       -12.0728 
  78   2.0000      -0.442320       -12.0361 
  79   2.0000      -0.412909       -11.2358 
  80   2.0000      -0.409591       -11.1455 
  81   2.0000      -0.405969       -11.0470 
  82   2.0000      -0.402908       -10.9637 
  83   2.0000      -0.371877       -10.1193 
  84   2.0000      -0.360257        -9.8031 
  85   2.0000      -0.330114        -8.9829 
  86   2.0000      -0.300627        -8.1805 
  87   2.0000      -0.295440        -8.0393 
  88   2.0000      -0.289959        -7.8902 
  89   2.0000      -0.277067        -7.5394 
  90   2.0000      -0.192987        -5.2514 
  91   0.0000      -0.047273        -1.2864 
  92   0.0000       0.032496         0.8843 
  93   0.0000       0.037806         1.0287 
  94   0.0000       0.043214         1.1759 
  95   0.0000       0.063475         1.7273 
  96   0.0000       0.065661         1.7867 
  97   0.0000       0.073682         2.0050 
  98   0.0000       0.078796         2.1441 
  99   0.0000       0.079780         2.1709 
 100   0.0000       0.089932         2.4472 
 101   0.0000       0.092108         2.5064 
*Only the first 10 virtual orbitals were printed.
-------
TIMINGS
-------

Total SCF time: 0 days 0 hours 4 min 26 sec 

Total time                  ....     266.536 sec
Sum of individual times     ....     266.279 sec  ( 99.9%)

SCF preparation             ....      15.750 sec  (  5.9%)
Fock matrix formation       ....     219.965 sec  ( 82.5%)
  Startup                   ....       2.444 sec  (  1.1% of F)
  RI-JK                     ....     196.036 sec  ( 89.1% of F)
  XC integration            ....      15.480 sec  (  7.0% of F)
    XC Preparation          ....       0.000 sec  (  0.0% of XC)
    Basis function eval.    ....       1.222 sec  (  7.9% of XC)
    Density eval.           ....       3.207 sec  ( 20.7% of XC)
    XC-Functional eval.     ....       0.037 sec  (  0.2% of XC)
    XC-Potential eval.      ....       4.654 sec  ( 30.1% of XC)
Diagonalization             ....       0.000 sec  (  0.0%)
Density matrix formation    ....       4.439 sec  (  1.7%)
Total Energy calculation    ....       2.036 sec  (  0.8%)
Population analysis         ....       0.000 sec  (  0.0%)
Orbital Transformation      ....       2.723 sec  (  1.0%)
Orbital Orthonormalization  ....       0.000 sec  (  0.0%)
DIIS solution               ....      15.819 sec  (  5.9%)
SOSCF solution              ....       5.431 sec  (  2.0%)
Finished LeanSCF after 267.0 sec

Maximum memory used throughout the entire LEANSCF-calculation: 752.4 MB


           ************************************************************
           *        Program running with 104 parallel MPI-processes   *
           *              working on a common directory               *
           ************************************************************

------------------------------------------------------------------------------
                                ORCA  MP2 
------------------------------------------------------------------------------


-------------
RI-MP2 ENERGY
-------------
Dimension of the orbital basis            ... 2016
Dimension of the AuxC basis               ... 4732
Memory devoted to MP2                     ... 4096 MB   
Data format for matrix containers         ... DOUBLE
Compression type for matrix containers    ... UNCOMPRESSED
Scaling for aa/bb pairs                   ...   5.710e-02
Scaling for ab pairs                      ...   5.979e-01
Overall scaling of the MP2 energy         ...   1.000e+00

-----------------------
SHARK RI TRANSFORMATION
-----------------------

Number of basis functions                ...   2016
Number of aux functions                  ...   4732
Number of operators                      ...      1
Generation of IJK                        ... NO
Generation of IAK                        ... YES
Generation of ABK                        ... NO
Orbital Range Operator  0:    0-  90 to   91-2015

Aux basis identifier                     ...   AUXC
Contraction scheme used                  ... SEGMENTED
Do orthogonalization                     ... YES
All operator combinations                ... NO
Transpose (ia|K)                         ... NO
Integral generator used                  ... LIBINT
Starting integral generation + trafo... 
Half trafo (segmented) done. Total time =  6.6 sec. integrals=  1.8 sec trafo=  4.5 sec
Integral generation and half transformation done (  6.6 sec)

Reading or making V^(-1/2)          ... done (  0.4 sec)
Sorting IAK integrals               ... done (  6.5 sec)

SHARK RI integral transformation done. Total time = 13.7 sec.

Opening buffers                              ... done

Starting loop over batches of integrals:

Operator 0  - window                       ... (  0- 90)x( 91-2015)
Operator 0  - Memory available             ...  4096 MB
Operator 0  - Memory needed per MO         ...  69.5 MB
Operator 0  - Number of orbitals per batch ... 1
Operator 0  - Number of batches            ... 1

OPERATOR  0   PASS   0:  MOs     0 ...    0 +    1 ...    1 +    2 ...    2 +    3 ...    3
                            +    4 ...    4 +    5 ...    5 +    6 ...    6 +    7 ...    7
                            +    8 ...    8 +    9 ...    9 +   10 ...   10 +   11 ...   11
                            +   12 ...   12 +   13 ...   13 +   14 ...   14 +   15 ...   15
                            +   16 ...   16 +   17 ...   17 +   18 ...   18 +   19 ...   19
                            +   20 ...   20 +   21 ...   21 +   22 ...   22 +   23 ...   23
                            +   24 ...   24 +   25 ...   25 +   26 ...   26 +   27 ...   27
                            +   28 ...   28 +   29 ...   29 +   30 ...   30 +   31 ...   31
                            +   32 ...   32 +   33 ...   33 +   34 ...   34 +   35 ...   35
                            +   36 ...   36 +   37 ...   37 +   38 ...   38 +   39 ...   39
                            +   40 ...   40 +   41 ...   41 +   42 ...   42 +   43 ...   43
                            +   44 ...   44 +   45 ...   45 +   46 ...   46 +   47 ...   47
                            +   48 ...   48 +   49 ...   49 +   50 ...   50 +   51 ...   51
                            +   52 ...   52 +   53 ...   53 +   54 ...   54 +   55 ...   55
                            +   56 ...   56 +   57 ...   57 +   58 ...   58 +   59 ...   59
                            +   60 ...   60 +   61 ...   61 +   62 ...   62 +   63 ...   63
                            +   64 ...   64 +   65 ...   65 +   66 ...   66 +   67 ...   67
                            +   68 ...   68 +   69 ...   69 +   70 ...   70 +   71 ...   71
                            +   72 ...   72 +   73 ...   73 +   74 ...   74 +   75 ...   75
                            +   76 ...   76 +   77 ...   77 +   78 ...   78 +   79 ...   79
                            +   80 ...   80 +   81 ...   81 +   82 ...   82 +   83 ...   83
                            +   84 ...   84 +   85 ...   85 +   86 ...   86 +   87 ...   87
                            +   88 ...   88 +   89 ...   89 +   90 ...   90
  Reading integrals       ... ok
Time spent in pair loops =    65.035 sec

-----------------------------------------------
 RI-MP2 CORRELATION ENERGY:     -2.747115400 Eh
-----------------------------------------------


-------
TIMINGS
-------

Total time                :   82.258 sec
Integral trafo            :   13.775 sec ( 16.7%)
I/O of integrals          :    0.065 sec (  0.1%)
K(i,j) operators          :    0.631 sec (  0.8%)
T(i,j) pair energies      :    0.097 sec (  0.1%)
V**(-1/2)                 :    3.446 sec (  4.2%)


---------------------------------------
MP2 TOTAL ENERGY:    -1074.193859364 Eh
---------------------------------------

Maximum memory used throughout the entire MP2-calculation: 506.4 MB


-------------------------------------------------------------------------------
                          DFT DISPERSION CORRECTION                            
                                                                               
                                DFTD4 V3.4.0                                   
-------------------------------------------------------------------------------
The REV-DSD-PBEP86-2021 functional is recognized
A user input s6-coefficient scaling factor has been recognized
A user input a1-coefficient scaling factor has been recognized
A user input s8-coefficient scaling factor has been recognized
A user input a2-coefficient scaling factor has been recognized
A user input s9-coefficient scaling factor has been recognized
Active option DFTDOPT                   ...         5   

-------------------------   ----------------
Dispersion correction           -0.046466681
-------------------------   ----------------


-------------------------   --------------------
FINAL SINGLE POINT ENERGY     -1074.240326044736
-------------------------   --------------------



           ************************************************************
           *        Program running with 104 parallel MPI-processes   *
           *              working on a common directory               *
           ************************************************************

------------------------------------------------------------------------------
                              ORCA PROPERTY CALCULATIONS
------------------------------------------------------------------------------

GBWName                                 ... compas3x_hc_c28h14_0pent_1_qz_riri.gbw
Number of atoms                         ...     42
Number of basis functions               ...   2016
Max core memory                         ...   1024 MB

Electric properties:
Dipole moment                           ... YES
Quadrupole moment                       ...  NO
Static polarizability (Dipole/Dipole)   ...  NO
Static polarizability (Dipole/Quad.)    ...  NO
Static polarizability (Quad./Quad.)     ...  NO
Static polarizability (Velocity)        ...  NO

Atomic electric properties:
Dipole moment                           ...  NO
Quadrupole moment                       ...  NO
Static polarizability                   ...  NO

Choice of electric origin               ... Center of mass
Position of electric origin             ...    -0.000223    -0.000045     0.000044

General magnetic properties:
Magnetizability                         ...  NO

EPR properties:
g-Tensor (aka g-matrix)                 ...  NO
Zero-Field splitting spin-orbit         ...  NO
Zero-field splitting spin-spin          ...  NO
Hyperfine couplings                     ...  NO (   0 nuclei)
Quadrupole couplings                    ...  NO (   0 nuclei)
Contact density                         ...  NO (   0 nuclei)

NMR properties:
Chemical shifts                         ...  NO (   0 nuclei)
Spin-rotation constants                 ...  NO (   0 nuclei)
Spin-spin couplings                     ...  NO (   0 nuclei,    0 pairs)

Choice of magnetic origin               ... GIAO
Position of magnetic origin             ...     0.000000     0.000000     0.000000

Properties with geometric perturbations:
SCF Hessian                             ...  NO
IR spectrum                             ...  NO
VCD spectrum                            ...  NO
X-ray spectroscopy properties:
SCF XES/XAS/RIXS spectra                ...  NO


-------------
DIPOLE MOMENT
-------------

Method             : SCF
Type of density    : Electron Density
Multiplicity       :   1
Irrep              :   0
Energy             : -1071.4467439639479380 Eh
Relativity type    : 
Basis              : AO
                                X                 Y                 Z
Electronic contribution:      0.000024824       0.000003957       0.000884298
Nuclear contribution   :     -0.000036294      -0.000009242      -0.001004416
                        -----------------------------------------
Total Dipole Moment    :     -0.000011470      -0.000005285      -0.000120118
                        -----------------------------------------
Magnitude (a.u.)       :      0.000120780
Magnitude (Debye)      :      0.000307000



--------------------
Rotational spectrum 
--------------------
 
Rotational constants in cm-1:             0.008014             0.007723             0.003933 
Rotational constants in MHz :           240.242102           231.531054           117.906893 

Dipole components along the rotational axes: 
x,y,z [a.u.] :    -0.000012    -0.000003    -0.000120 
x,y,z [Debye]:    -0.000032    -0.000006    -0.000305 

 

Dipole moment calculation done in   0.3 sec 

Maximum memory used throughout the entire PROP-calculation: 274.0 MB

--------------------------------
SUGGESTED CITATIONS FOR THIS RUN
--------------------------------

Below you find a list of papers that are relevant to this ORCA run
We neither can nor want to force you to cite these papers, but we appreciate if you do
You receive ORCA, which is the product of decades of hard work by many enthusiastic individuals, for free
The only thing we kindly ask in return is that you cite our papers,
We deeply appreciate it, if you show your appreciation for ORCA by not just citing the generic ORCA reference.

Please note that relegating all ORCA citations to the supporting information does *not* help us.
SI sections are not indexed - citations you put there will not count into any citation statistics
But we need these citations in order to attract the funding resources that allow us to do what we are doing

Therefore, if you are a happy ORCA user, please consider citing a few of the papers listed below in the main body of your paper

In addition to the list printed below, the program has created the file compas3x_hc_c28h14_0pent_1_qz_riri.bibtex that contains the list in bibtex format
You can import this file easily into all common literature databanks and citation aid programs


List of essential papers. We consider these as the minimum necessary citations

  1. Neese,F.
     Software update: the ORCA program system, version 5.0
     WIRES Comput. Molec. Sci., 2022 12(1)e1606
     doi.org/10.1002/wcms.1606

List of papers to cite with high priority. The work reported in these papers was absolutely
necessary for this run to complete.
Our perspective: the developers of density functionals and basis sets usually get cited in chemistry papers
Good! But without the algorithms to do something with them, the functionals or basis sets would not do anything.
Hence, in our opinion, the algorithm design and method developments papers are equally worthy of getting cited

  1. Neese,F.
     An improvement of the resolution of the identity approximation for the formation of the Coulomb matrix
     J. Comp. Chem., 2003 24(14)1740-1747
     doi.org/10.1002/jcc.10318
  2. Kossmann,S.; Neese,F.
     Comparison of two efficient approximate Hartee-Fock approaches
     Chem. Phys. Lett., 2009 481 240-243
     doi.org/10.1016/j.cplett.2009.09.073
  3. Neese,F.
     The SHARK Integral Generation and Digestion System
     J. Comp. Chem., 2022  1-16
     doi.org/10.1002/jcc.26942
  4. Caldeweyher,E.; Bannwarth,C.; Grimme,S.
     Extension of the D3 dispersion coefficient model
     J. Chem. Phys., 2017 147 034112
     doi.org/10.1063/1.4993215
  5. Caldeweyher,E.; Ehlert,S.; Hansen,A.; Neugebauer,H.; Spicher,S.; Bannwarth,C.; Grimme,S.
     A generally applicable atomic-charge dependent London dispersion correction
     J. Chem. Phys., 2019 150 154122
     doi.org/10.1063/1.5090222
  6. Caldeweyher,E.; Mewes,J.; Ehlert,S.; Grimme,S.
     Extension and evaluation of the D4 London-dispersion model for periodic systems
     Phys. Chem. Chem. Phys., 2020 22(16)8499-8512
     doi.org/10.1039/D0CP00502A
  7. Wittmann,L.; Gordiy,I.; Friede,M.; Helmich-Paris,B.; Grimme,S.; Hansen,A.; Bursch,M.
     Extension of the D3 and D4 London Dispersion Corrections to the full Actinides Series
     Phys. Chem. Chem. Phys., 2024 26(32)21379-21394
     doi.org/https://doi.org/10.1039/D4CP01514B 

List of suggested additional citations. These are papers that are important in the 'surrounding' of 
of this run, or papers that preceded the highly important papers. If you like your results we are grateful for a citation.

  1. Neese,F.
     The ORCA program system
     WIRES Comput. Molec. Sci., 2012 2(1)73-78
     doi.org/10.1002/wcms.81
  2. Neese,F.
     Software update: the ORCA program system, version 4.0
     WIRES Comput. Molec. Sci., 2018 8(1)1-6
     doi.org/10.1002/wcms.1327
  3. Neese,F.; Wennmohs,F.; Becker,U.; Riplinger,C.
     The ORCA quantum chemistry program package
     J. Chem. Phys., 2020 152 Art. No. L224108
     doi.org/10.1063/5.0004608

List of optional additional citations

  1. Neese,F.
     Approximate second-order SCF convergence for spin unrestricted wavefunctions
     Chem. Phys. Lett., 2000 325(1-3)93-98
     doi.org/10.1016/s0009-2614(00)00662-x

Timings for individual modules:

Sum of individual times          ...      435.305 sec (=   7.255 min)
Startup calculation              ...       28.893 sec (=   0.482 min)   6.6 %
SCF iterations                   ...      289.078 sec (=   4.818 min)  66.4 %
Property calculations            ...       16.986 sec (=   0.283 min)   3.9 %
MP2 module                       ...      100.348 sec (=   1.672 min)  23.1 %
                             ****ORCA TERMINATED NORMALLY****
TOTAL RUN TIME: 0 days 0 hours 7 minutes 41 seconds 485 msec
