
                                 *****************
                                 * O   R   C   A *
                                 *****************

                                            #,                                       
                                            ###                                      
                                            ####                                     
                                            #####                                    
                                            ######                                   
                                           ########,                                 
                                     ,,################,,,,,                         
                               ,,#################################,,                 
                          ,,##########################################,,             
                       ,#########################################, ''#####,          
                    ,#############################################,,   '####,        
                  ,##################################################,,,,####,       
                ,###########''''           ''''###############################       
              ,#####''   ,,,,##########,,,,          '''####'''          '####       
            ,##' ,,,,###########################,,,                        '##       
           ' ,,###''''                  '''############,,,                           
         ,,##''                                '''############,,,,        ,,,,,,###''
      ,#''                                            '''#######################'''  
     '                                                          ''''####''''         
             ,#######,   #######,   ,#######,      ##                                
            ,#'     '#,  ##    ##  ,#'     '#,    #''#        ,####,   ,####,        
            ##       ##  ##   ,#'  ##            #'  '#       #'       #'  '#        
            ##       ##  #######   ##           ,######,      #####,   #    #        
            '#,     ,#'  ##    ##  '#,     ,#' ,#      #,     #,   #   #,  ,#        
             '#######'   ##     ##  '#######'  #'      '#     '####' # '####'        



                #########################################################
                #                        -***-                          #
                #          Department of theory and spectroscopy        #
                #                                                       #
                #                      Frank Neese                      #
                #                                                       #
                #     Directorship, Architecture, Infrastructure        #
                #                    SHARK, DRIVERS                     #
                #        Core code/Algorithms in most modules           #
                #                                                       #
                #        Max Planck Institute fuer Kohlenforschung      #
                #                Kaiser Wilhelm Platz 1                 #
                #                 D-45470 Muelheim/Ruhr                 #
                #                      Germany                          #
                #                                                       #
                #                  All rights reserved                  #
                #                        -***-                          #
                #########################################################


                         Program Version 6.0.1  -  RELEASE   -


 With contributions from (in alphabetic order):
[Max-Planck-Institut fuer Kohlenforschung]                               
  Daniel Aravena         : Magnetic Suceptibility                        
  Michael Atanasov       : Ab Initio Ligand Field Theory (pilot matlab implementation)
  Alexander A. Auer      : GIAO ZORA, VPT2 properties, NMR spectrum      
  Ute Becker             : All parallelization in ORCA, NUMFREQ, NUMCALC 
  Giovanni Bistoni       : ED, misc. LED, open-shell LED, HFLD           
  Martin Brehm           : Molecular dynamics                            
  Dmytro Bykov           : pre 5.0 version of the SCF Hessian            
  Marcos Casanova-Páez   : Triplet and SCS-CIS(D). UHF-(DLPNO)-IP/EA/STEOM-CCSD. UHF-CVS-IP/STEOM-CCSD   
  Vijay G. Chilkuri      : MRCI spin determinant printing, contributions to CSF-ICE 
  Pauline Colinet        : FMM embedding                                 
  Dipayan Datta          : RHF DLPNO-CCSD density                        
  Achintya Kumar Dutta   : EOM-CC, STEOM-CC                              
  Nicolas Foglia         : Exact transition moments, OPA infrastructure, MCD improvements    
  Dmitry Ganyushin       : Spin-Orbit,Spin-Spin,Magnetic field MRCI      
  Miquel Garcia-Rates    : C-PCM and meta-GGA Hessian, CCSD/C-PCM, Gaussian charge scheme 
  Tiago L. C. Gouveia    : GS-ROHF, GS-ROCIS                             
  Yang Guo               : DLPNO-NEVPT2, F12-NEVPT2, CIM, IAO-localization        
  Andreas Hansen         : Spin unrestricted coupled pair/coupled cluster methods 
  Ingolf Harden          : AUTO-CI MPn and infrastructure                
  Benjamin Helmich-Paris : MC-RPA, TRAH-(SCF,CASSCF), AVAS, COSX integrals, SCF dyn. polar. 
  Lee Huntington         : MR-EOM, pCC                                   
  Robert Izsak           : Overlap fitted RIJCOSX, COSX-SCS-MP3, EOM     
  Riya Kayal             : Wick's Theorem for AUTO-CI, AUTO-CI UHF-CCSDT 
  Emily Kempfer          : AUTO-CI, RHF CISDT and CCSDT                  
  Christian Kollmar      : KDIIS, OOCD, Brueckner-CCSD(T), CCSD density, CASPT2, CASPT2-K, improved NEVPT2 
  Axel Koslowski         : Symmetry handling                             
  Simone Kossmann        : meta-GGA functionals, TD-DFT gradient, OOMP2, (MP2 Hessian; deprecated post 5.0) 
  Lucas Lang             : DCDCAS                                        
  Marvin Lechner         : AUTO-CI (C++ implementation), FIC-MRCC        
  Spencer Leger          : CASSCF response                               
  Dagmar Lenk            : GEPOL surface, SMD, ORCA-2-JSON               
  Dimitrios Liakos       : Extrapolation schemes; Compound Job, initial MDCI parallelization 
  Dimitrios Manganas     : Further ROCIS development; embedding schemes. LFT, Crystal Embedding 
  Dimitrios Pantazis     : SARC Basis sets                               
  Anastasios Papadopoulos: AUTO-CI, single reference methods and gradients 
  Taras Petrenko         : pre 6.0 DFT Hessian and TD-DFT gradient, (ASA, deprecated), ECA, 1-Electron XAS/XES, NRVS 
  Peter Pinski           : DLPNO-MP2, DLPNO-MP2 Gradient                 
  Christoph Reimann      : Effective Core Potentials                     
  Marius Retegan         : Local ZFS, SOC                                
  Christoph Riplinger    : Optimizer, TS searches, QM/MM, DLPNO-CCSD(T), (RO)-DLPNO pert. Triples 
  Michael Roemelt        : Original ROCIS implementation                 
  Masaaki Saitow         : Open-shell DLPNO-CCSD energy and density      
  Barbara Sandhoefer     : DKH picture change effects                    
  Kantharuban Sivalingam : CASSCF convergence/infrastructure, NEVPT2 and variants, FIC-MRCI 
  Bernardo de Souza      : ESD, SOC TD-DFT                               
  Georgi L. Stoychev     : AutoAux, RI-MP2 NMR, DLPNO-MP2 response, X2C  
  Van Anh Tran           : RI-MP2 g-tensors                              
  Willem Van den Heuvel  : Paramagnetic NMR                              
  Zikuan Wang            : NOTCH, Electric field optimization            
  Frank Wennmohs         : Technical directorship and infrastructure     
  Hang Xu                : AUTO-CI-Response properties                   
                                                                         
[FACCTs GmbH]                                                            
  Markus Bursch, Miquel Garcia-Rates, Christoph Riplinger, Bernardo de Souza, Georgi L. Stoychev 
                                                                 
  APM, Basis sets (HGBS, AHGBS, def-TZVP (Ac-Lr), def2-XVPD (La-Lu)), CI-OPT, improved COSX, DLPNO-Multilevel,           
  DOCKER, DRACO, updates on ESD, GOAT, IRC, LR-CPCM, MBIS, meta-GGA TD-DFT gradient, ML-optimized integration grids, 
  MM, NACMEs, nearIR, NEB, NEB-TS, NL-DFT gradient (VV10), 2- and 3-layer-ONIOM, interface openCOSMO-RS, QMMM,   
  Crystal-QMMM, SF, symmetry and pop. for TD-DFT, r2SCAN hybrids, SOLVATOR                                   
                                                                         
[Other institutions]                                                     
  V. Asgeirsson          : NEB                                           
  Christoph Bannwarth    : sTDA-DFT, sTD-DFT, PBEh-3c, B97-3c, D3        
  Sebastian Ehlert       : rSCAN, r2SCAN, r2SCAN-3c, D4, dhf basis sets  
  Marvin Friede          : D4 for Fr, Ra, Ac-Lr                          
  Lars Goerigk           : TD-DFT with DH, B97 family of functionals     
  Stefan Grimme          : VdW corrections, initial TS optimization, DFT functionals, gCP, sTDA/sTD-DF 
  Waldemar Hujo          : DFT-NL                                        
  H. Jonsson             : NEB                                           
  Holger Kruse           : gCP                                           
  Marcel Mueller         : wB97X-3c, vDZP basis set                      
  Hagen Neugebauer       : wr2SCAN                                       
  Tobias Risthaus        : range-separated hybrid DFT                    
  Lukas Wittmann         : regularized MP2, r2SCAN double-hybrids, wr2SCAN        
                                                                         
We gratefully acknowledge several colleagues who have allowed us to      
interface, adapt or use parts of their codes:                            
  Ed Valeev, F. Pavosevic, A. Kumar             : LibInt (2-el integral package), F12 methods 
  Garnet Chan, S. Sharma, J. Yang, R. Olivares  : DMRG                   
  Ulf Ekstrom                                   : XCFun DFT Library      
  Mihaly Kallay                                 : mrcc  (arbitrary order and MRCC methods)
  Frank Weinhold                                : gennbo (NPA and NBO analysis)           
  Simon Mueller                                 : openCOSMO-RS                            
  Christopher J. Cramer and Donald G. Truhlar   : smd solvation model                     
  S Lehtola, MJT Oliveira, MAL Marques          : LibXC Library                           
  Liviu Ungur et al                             : ANISO software                          


 Your calculation uses the libint2 library for the computation of 2-el integrals
 For citations please refer to: http://libint.valeyev.net

 Your ORCA version has been built with support for libXC version: 6.2.2
 For citations please refer to: https://libxc.gitlab.io

 This ORCA versions uses:
   CBLAS   interface :  Fast vector & matrix operations
   LAPACKE interface :  Fast linear algebra routines
   SCALAPACK package :  Parallel linear algebra routines
   Shared memory     :  Shared parallel matrices
   BLAS/LAPACK       :  OpenBLAS 0.3.27  USE64BITINT DYNAMIC_ARCH NO_AFFINITY SapphireRapids SINGLE_THREADED
        Core in use  :  SapphireRapids
   Copyright (c) 2011-2014, The OpenBLAS Project




***************************************
The coordinates will be read from file: /scratch/kx58/rs2200/dhdft/inputs/compas3x-xyzs/hc_c24h14_0pent_2.xyz
***************************************


Your calculation utilizes the atom-pairwise dispersion correction
based on EEQ partial charges (D4)


================================================================================

----- Orbital basis set information -----
Your calculation utilizes the basis: def2-SVP
   F. Weigend and R. Ahlrichs, Phys. Chem. Chem. Phys. 7, 3297 (2005).

----- AuxC basis set information -----
Your calculation utilizes the auxiliary basis: def2-SVP/C
  H-La, Hf-Rn : A. Hellweg, C. Hattig, S. Hofener and W. Klopper, Theor. Chem. Acc. 117, 587 (2007).
        Ce-Lu : J. Chmela and M. E. Harding, Mol. Phys. (2018).

----- AuxJK basis set information -----
Your calculation utilizes the auxiliary basis: def2/JK
   H-Ba, Hf-Rn: F. Weigend, J. Comput. Chem. 29, 167 (2008).

================================================================================
                                        WARNINGS
                       Please study these warnings very carefully!
================================================================================


WARNING: No MP2 level density has been requested!
         To calculate MP2 level properties use
         %mp2 Density relaxed end
         or
         %mp2 Density unrelaxed end
         Otherwise for double-hybrid DFT only the energy is correct!

================================================================================
                                       INPUT FILE
================================================================================
NAME = compas3x_hc_c24h14_0pent_2_dz_rijk.inp
|  1> ! RKS revDSD-PBEP86-D4/2021 defgrid3  RIJK NOPOP NoFrozencore NoUseSym
|  2> 
|  3> %basis
|  4> Basis "def2-SVP"
|  5> AuxJK "def2/JK"
|  6> AuxC "def2-SVP/C"
|  7> end
|  8> 
|  9> %method
| 10> ScalHFX 0.69
| 11> ScalDFX 0.31
| 12> ScalDFC 0.4038
| 13> ScalLDAC 0.4038
| 14> 
| 15> D4S6 0.4612
| 16> D4S8 0.0
| 17> D4A1 0.44
| 18> D4A2 3.60
| 19> end
| 20> 
| 21> %mp2
| 22> PS 0.5979
| 23> PT 0.0571
| 24> end
| 25> 
| 26> %pal
| 27> nprocs 104
| 28> end
| 29> 
| 30> *XYZFILE 0 1 /scratch/kx58/rs2200/dhdft/inputs/compas3x-xyzs/hc_c24h14_0pent_2.xyz
| 31> 
| 32>                          ****END OF INPUT****
================================================================================

                       ****************************
                       * Single Point Calculation *
                       ****************************

---------------------------------
CARTESIAN COORDINATES (ANGSTROEM)
---------------------------------
  C      2.253740   -0.108310   -0.213590
  C      1.343849   -1.175081   -0.401665
  C     -0.058486   -0.963802   -0.257558
  C     -0.553573    0.303623    0.082639
  C      0.329413    1.438105   -0.066354
  C      1.727139    1.239028   -0.139567
  C      3.618704   -0.395028   -0.191316
  C      4.086866   -1.677566   -0.413738
  C      3.206816   -2.708482   -0.672838
  C      1.831669   -2.478674   -0.660528
  C      0.902656   -3.541274   -0.886404
  C     -0.426667   -3.340518   -0.782343
  C     -0.954121   -2.063661   -0.417427
  C     -2.306610   -1.871702   -0.216711
  C     -2.794287   -0.669744    0.313364
  C     -1.899157    0.415352    0.538136
  C     -0.172664    2.734240   -0.258781
  C      0.665247    3.817281   -0.377622
  C      2.042714    3.634056   -0.325157
  C      2.558281    2.362362   -0.239575
  C     -4.152742   -0.533928    0.678799
  C     -4.598678    0.583738    1.321981
  C     -3.688967    1.593775    1.669985
  C     -2.377659    1.510752    1.289835
  H      4.335923    0.386564    0.003083
  H      5.150230   -1.867905   -0.394328
  H      3.574380   -3.705818   -0.867320
  H      1.300138   -4.515990   -1.131847
  H     -1.126428   -4.148618   -0.942061
  H     -2.997409   -2.681417   -0.406498
  H     -1.236392    2.876563   -0.369590
  H      0.255128    4.805183   -0.527480
  H      2.705830    4.483375   -0.399765
  H      3.628365    2.236190   -0.283425
  H     -4.825276   -1.352338    0.464193
  H     -5.636915    0.679109    1.604182
  H     -4.028996    2.435417    2.255673
  H     -1.682061    2.267145    1.619618

----------------------------
CARTESIAN COORDINATES (A.U.)
----------------------------
  NO LB      ZA    FRAG     MASS         X           Y           Z
   0 C     6.0000    0    12.011    4.258951   -0.204676   -0.403627
   1 C     6.0000    0    12.011    2.539507   -2.220581   -0.759036
   2 C     6.0000    0    12.011   -0.110522   -1.821323   -0.486715
   3 C     6.0000    0    12.011   -1.046101    0.573763    0.156164
   4 C     6.0000    0    12.011    0.622500    2.717625   -0.125391
   5 C     6.0000    0    12.011    3.263820    2.341423   -0.263744
   6 C     6.0000    0    12.011    6.838360   -0.746495   -0.361535
   7 C     6.0000    0    12.011    7.723057   -3.170141   -0.781851
   8 C     6.0000    0    12.011    6.060004   -5.118289   -1.271480
   9 C     6.0000    0    12.011    3.461353   -4.684016   -1.248217
  10 C     6.0000    0    12.011    1.705772   -6.692038   -1.675061
  11 C     6.0000    0    12.011   -0.806284   -6.312663   -1.478415
  12 C     6.0000    0    12.011   -1.803027   -3.899755   -0.788822
  13 C     6.0000    0    12.011   -4.358862   -3.537005   -0.409525
  14 C     6.0000    0    12.011   -5.280438   -1.265633    0.592173
  15 C     6.0000    0    12.011   -3.588887    0.784902    1.016930
  16 C     6.0000    0    12.011   -0.326287    5.166964   -0.489025
  17 C     6.0000    0    12.011    1.257135    7.213616   -0.713603
  18 C     6.0000    0    12.011    3.860170    6.867371   -0.614457
  19 C     6.0000    0    12.011    4.834450    4.464216   -0.452732
  20 C     6.0000    0    12.011   -7.847544   -1.008978    1.282744
  21 C     6.0000    0    12.011   -8.690242    1.103104    2.498181
  22 C     6.0000    0    12.011   -6.971138    3.011799    3.155815
  23 C     6.0000    0    12.011   -4.493125    2.854908    2.437435
  24 H     1.0000    0     1.008    8.193707    0.730500    0.005827
  25 H     1.0000    0     1.008    9.732525   -3.529829   -0.745172
  26 H     1.0000    0     1.008    6.754599   -7.002982   -1.638998
  27 H     1.0000    0     1.008    2.456905   -8.533984   -2.138881
  28 H     1.0000    0     1.008   -2.128640   -7.839753   -1.780237
  29 H     1.0000    0     1.008   -5.664283   -5.067144   -0.768169
  30 H     1.0000    0     1.008   -2.336442    5.435917   -0.698424
  31 H     1.0000    0     1.008    0.482122    9.080480   -0.996793
  32 H     1.0000    0     1.008    5.113278    8.472352   -0.755446
  33 H     1.0000    0     1.008    6.856615    4.225787   -0.535596
  34 H     1.0000    0     1.008   -9.118449   -2.555549    0.877197
  35 H     1.0000    0     1.008  -10.652225    1.283330    3.031464
  36 H     1.0000    0     1.008   -7.613698    4.602271    4.262604
  37 H     1.0000    0     1.008   -3.178635    4.284282    3.060634

--------------------------------
INTERNAL COORDINATES (ANGSTROEM)
--------------------------------
 C      0   0   0     0.000000000000     0.00000000     0.00000000
 C      1   0   0     1.414663637289     0.00000000     0.00000000
 C      2   1   0     1.425464466595   120.50017092     0.00000000
 C      3   2   1     1.402572995186   120.37870927   359.52507513
 C      4   3   2     1.445307424461   117.94693509    16.12748089
 C      5   4   3     1.413729581635   119.92208573   340.69322951
 C      1   2   3     1.394930511913   118.45671062   171.73235787
 C      7   1   2     1.383311589432   121.27638397     3.21431978
 C      8   7   1     1.380002682622   120.46293425     0.40332729
 C      9   8   7     1.394270977959   120.27706623   357.43613185
 C     10   9   8     1.429407016748   121.13744392   181.90966474
 C     11  10   9     1.348417794490   121.18838493   175.30002270
 C      3   2   1     1.427378540689   119.45610970   181.65337547
 C     13   3   2     1.380711136842   119.42168335   177.01197804
 C     14  13   3     1.401254024792   121.00831219   351.32411572
 C     15  14  13     1.424504988643   119.62968264     5.65956968
 C      5   4   3     1.403236412892   121.37094978   155.02882730
 C     17   5   4     1.374480674545   121.43682151   178.86493340
 C     18  17   5     1.390589195289   119.78735242     0.86148013
 C     19  18  17     1.374896814762   119.71368986     4.09178727
 C     15  14  13     1.413289247893   120.98210891   188.19146409
 C     21  15  14     1.364448305594   120.98069298   173.11200101
 C     22  21  15     1.403159659843   119.64719559   357.68378575
 C     23  22  21     1.367821505243   120.59208200     4.52144795
 H      7   1   2     1.078461834640   120.30929317   183.30972400
 H      8   7   1     1.080439784119   119.57300608   179.73947806
 H      9   8   7     1.080558448346   120.42235208   178.69048652
 H     11  10   9     1.080882141745   117.85572194   356.04012085
 H     12  11  10     1.080833831160   121.03357276   180.74011107
 H     14  13   3     1.081138168759   119.75227568   175.52888146
 H     17   5   4     1.078912358554   119.25471420   355.48511304
 H     18  17   5     1.080094795624   120.08113292   179.86180156
 H     19  18  17     1.080107411215   120.12768016   181.12300535
 H     20  19  18     1.078388155645   118.54083160   174.93983480
 H     21  15  14     1.080811096328   118.29403744   355.03981062
 H     22  21  15     1.080124160395   120.63956877   180.38151587
 H     23  22  21     1.080282263687   119.42032806   185.40924541
 H     24  23  22     1.079232302031   119.36915802   183.76113770

---------------------------
INTERNAL COORDINATES (A.U.)
---------------------------
 C      0   0   0     0.000000000000     0.00000000     0.00000000
 C      1   0   0     2.673326846093     0.00000000     0.00000000
 C      2   1   0     2.693737455501   120.50017092     0.00000000
 C      3   2   1     2.650478843735   120.37870927   359.52507513
 C      4   3   2     2.731235211554   117.94693509    16.12748089
 C      5   4   3     2.671561736713   119.92208573   340.69322951
 C      1   2   3     2.636036643367   118.45671062   171.73235787
 C      7   1   2     2.614080061907   121.27638397     3.21431978
 C      8   7   1     2.607827134233   120.46293425     0.40332729
 C      9   8   7     2.634790304818   120.27706623   357.43613185
 C     10   9   8     2.701187795560   121.13744392   181.90966474
 C     11  10   9     2.548140345692   121.18838493   175.30002270
 C      3   2   1     2.697354531338   119.45610970   181.65337547
 C     13   3   2     2.609165918687   119.42168335   177.01197804
 C     14  13   3     2.647986350911   121.00831219   351.32411572
 C     15  14  13     2.691924304939   119.62968264     5.65956968
 C      5   4   3     2.651732521512   121.37094978   155.02882730
 C     17   5   4     2.597392051257   121.43682151   178.86493340
 C     18  17   5     2.627832743887   119.78735242     0.86148013
 C     19  18  17     2.598178442302   119.71368986     4.09178727
 C     15  14  13     2.670729626533   120.98210891   188.19146409
 C     21  15  14     2.578433621465   120.98069298   173.11200101
 C     22  21  15     2.651587479269   119.64719559   357.68378575
 C     23  22  21     2.584808044997   120.59208200     4.52144795
 H      7   1   2     2.037997513355   120.30929317   183.30972400
 H      8   7   1     2.041735296178   119.57300608   179.73947806
 H      9   8   7     2.041959539068   120.42235208   178.69048652
 H     11  10   9     2.042571230945   117.85572194   356.04012085
 H     12  11  10     2.042479937169   121.03357276   180.74011107
 H     14  13   3     2.043055051883   119.75227568   175.52888146
 H     17   5   4     2.038848880171   119.25471420   355.48511304
 H     18  17   5     2.041083362402   120.08113292   179.86180156
 H     19  18  17     2.041107202416   120.12768016   181.12300535
 H     20  19  18     2.037858280234   118.54083160   174.93983480
 H     21  15  14     2.042436974564   118.29403744   355.03981062
 H     22  21  15     2.041138853779   120.63956877   180.38151587
 H     23  22  21     2.041437625701   119.42032806   185.40924541
 H     24  23  22     2.039453485719   119.36915802   183.76113770

---------------------
BASIS SET INFORMATION
---------------------
There are 2 groups of distinct atoms

 Group   1 Type C   : 7s4p1d contracted to 3s2p1d pattern {511/31/1}
 Group   2 Type H   : 4s1p contracted to 2s1p pattern {31/1}

Atom   0C    basis set group =>   1
Atom   1C    basis set group =>   1
Atom   2C    basis set group =>   1
Atom   3C    basis set group =>   1
Atom   4C    basis set group =>   1
Atom   5C    basis set group =>   1
Atom   6C    basis set group =>   1
Atom   7C    basis set group =>   1
Atom   8C    basis set group =>   1
Atom   9C    basis set group =>   1
Atom  10C    basis set group =>   1
Atom  11C    basis set group =>   1
Atom  12C    basis set group =>   1
Atom  13C    basis set group =>   1
Atom  14C    basis set group =>   1
Atom  15C    basis set group =>   1
Atom  16C    basis set group =>   1
Atom  17C    basis set group =>   1
Atom  18C    basis set group =>   1
Atom  19C    basis set group =>   1
Atom  20C    basis set group =>   1
Atom  21C    basis set group =>   1
Atom  22C    basis set group =>   1
Atom  23C    basis set group =>   1
Atom  24H    basis set group =>   2
Atom  25H    basis set group =>   2
Atom  26H    basis set group =>   2
Atom  27H    basis set group =>   2
Atom  28H    basis set group =>   2
Atom  29H    basis set group =>   2
Atom  30H    basis set group =>   2
Atom  31H    basis set group =>   2
Atom  32H    basis set group =>   2
Atom  33H    basis set group =>   2
Atom  34H    basis set group =>   2
Atom  35H    basis set group =>   2
Atom  36H    basis set group =>   2
Atom  37H    basis set group =>   2
---------------------------------
AUXILIARY/C BASIS SET INFORMATION
---------------------------------
There are 2 groups of distinct atoms

 Group   1 Type C   : 8s6p5d3f contracted to 6s5p4d1f pattern {311111/21111/2111/3}
 Group   2 Type H   : 4s3p2d contracted to 3s2p1d pattern {211/21/2}

Atom   0C    basis set group =>   1
Atom   1C    basis set group =>   1
Atom   2C    basis set group =>   1
Atom   3C    basis set group =>   1
Atom   4C    basis set group =>   1
Atom   5C    basis set group =>   1
Atom   6C    basis set group =>   1
Atom   7C    basis set group =>   1
Atom   8C    basis set group =>   1
Atom   9C    basis set group =>   1
Atom  10C    basis set group =>   1
Atom  11C    basis set group =>   1
Atom  12C    basis set group =>   1
Atom  13C    basis set group =>   1
Atom  14C    basis set group =>   1
Atom  15C    basis set group =>   1
Atom  16C    basis set group =>   1
Atom  17C    basis set group =>   1
Atom  18C    basis set group =>   1
Atom  19C    basis set group =>   1
Atom  20C    basis set group =>   1
Atom  21C    basis set group =>   1
Atom  22C    basis set group =>   1
Atom  23C    basis set group =>   1
Atom  24H    basis set group =>   2
Atom  25H    basis set group =>   2
Atom  26H    basis set group =>   2
Atom  27H    basis set group =>   2
Atom  28H    basis set group =>   2
Atom  29H    basis set group =>   2
Atom  30H    basis set group =>   2
Atom  31H    basis set group =>   2
Atom  32H    basis set group =>   2
Atom  33H    basis set group =>   2
Atom  34H    basis set group =>   2
Atom  35H    basis set group =>   2
Atom  36H    basis set group =>   2
Atom  37H    basis set group =>   2
----------------------------------
AUXILIARY/JK BASIS SET INFORMATION
----------------------------------
There are 2 groups of distinct atoms

 Group   1 Type C   : 14s10p6d2f1g contracted to 10s8p5d1f1g pattern {5111111111/31111111/21111/2/1}
 Group   2 Type H   : 4s2p2d contracted to 2s2p2d pattern {31/11/11}

Atom   0C    basis set group =>   1
Atom   1C    basis set group =>   1
Atom   2C    basis set group =>   1
Atom   3C    basis set group =>   1
Atom   4C    basis set group =>   1
Atom   5C    basis set group =>   1
Atom   6C    basis set group =>   1
Atom   7C    basis set group =>   1
Atom   8C    basis set group =>   1
Atom   9C    basis set group =>   1
Atom  10C    basis set group =>   1
Atom  11C    basis set group =>   1
Atom  12C    basis set group =>   1
Atom  13C    basis set group =>   1
Atom  14C    basis set group =>   1
Atom  15C    basis set group =>   1
Atom  16C    basis set group =>   1
Atom  17C    basis set group =>   1
Atom  18C    basis set group =>   1
Atom  19C    basis set group =>   1
Atom  20C    basis set group =>   1
Atom  21C    basis set group =>   1
Atom  22C    basis set group =>   1
Atom  23C    basis set group =>   1
Atom  24H    basis set group =>   2
Atom  25H    basis set group =>   2
Atom  26H    basis set group =>   2
Atom  27H    basis set group =>   2
Atom  28H    basis set group =>   2
Atom  29H    basis set group =>   2
Atom  30H    basis set group =>   2
Atom  31H    basis set group =>   2
Atom  32H    basis set group =>   2
Atom  33H    basis set group =>   2
Atom  34H    basis set group =>   2
Atom  35H    basis set group =>   2
Atom  36H    basis set group =>   2
Atom  37H    basis set group =>   2


           ************************************************************
           *        Program running with 104 parallel MPI-processes   *
           *              working on a common directory               *
           ************************************************************
------------------------------------------------------------------------------
                             ORCA STARTUP CALCULATIONS
                           -- RI-GTO INTEGRALS CHOSEN --
------------------------------------------------------------------------------
------------------------------------------------------------------------------
                   ___                                                        
                  /   \      - P O W E R E D   B Y -                         
                 /     \                                                     
                 |  |  |   _    _      __       _____    __    __             
                 |  |  |  | |  | |    /  \     |  _  \  |  |  /  |          
                  \  \/   | |  | |   /    \    | | | |  |  | /  /          
                 / \  \   | |__| |  /  /\  \   | |_| |  |  |/  /          
                |  |  |   |  __  | /  /__\  \  |    /   |      \           
                |  |  |   | |  | | |   __   |  |    \   |  |\   \          
                \     /   | |  | | |  |  |  |  | |\  \  |  | \   \       
                 \___/    |_|  |_| |__|  |__|  |_| \__\ |__|  \__/        
                                                                              
                      - O R C A' S   B I G   F R I E N D -                    
                                      &                                       
                       - I N T E G R A L  F E E D E R -                       
                                                                              
 v1 FN, 2020, v2 2021, v3 2022-2024                                           
------------------------------------------------------------------------------


----------------------
SHARK INTEGRAL PACKAGE
----------------------

Number of atoms                             ...     38
Number of basis functions                   ...    406
Number of shells                            ...    186
Maximum angular momentum                    ...      2
Integral batch strategy                     ... SHARK/LIBINT Hybrid
RI-J (if used) integral strategy            ... SPLIT-RIJ (Revised 2003 algorithm where possible)
Printlevel                                  ...      1
Contraction scheme used                     ... SEGMENTED contraction
Prescreening option                         ... SCHWARTZ
   Thresh                                   ... 1.000e-10
   Tcut                                     ... 1.000e-11
   Tpresel                                  ... 1.000e-11 
Coulomb Range Separation                    ... NOT USED
Exchange Range Separation                   ... NOT USED
Multipole approximations                    ... NOT USED
Finite Nucleus Model                        ... NOT USED
CABS basis                                  ... NOT available
Auxiliary Coulomb fitting basis             ... NOT available
Auxiliary J/K fitting basis                 ... AVAILABLE
   # of basis functions in Aux-JK           ...   2052
   # of shells in Aux-JK                    ...    684
   Maximum angular momentum in Aux-JK       ...      4
Auxiliary Correlation fitting basis         ... AVAILABLE
   # of basis functions in Aux-C            ...   1348
   # of shells in Aux-C                     ...    468
   Maximum angular momentum in Aux-C        ...      3
Auxiliary 'external' fitting basis          ... NOT available

Checking pre-screening integrals            ... done (  0.0 sec) Dimension = 186
Check shell pair data                       ... done (  0.0 sec)
Shell pair information
Shell pair cut-off parameter TPreSel        ...   1.0e-11
Total number of shell pairs                 ...     17391
Shell pairs after pre-screening             ...     13169
Total number of primitive shell pairs       ...     64615
Primitive shell pairs kept                  ...     31190
          la=0 lb=0:   3842 shell pairs
          la=1 lb=0:   4802 shell pairs
          la=1 lb=1:   1570 shell pairs
          la=2 lb=0:   1676 shell pairs
          la=2 lb=1:   1100 shell pairs
          la=2 lb=2:    179 shell pairs

Calculating one electron integrals          ... done (  0.6 sec)
Calculating RI/JK V-Matrix + Cholesky decomp... done (  0.6 sec)
Calculating RI/C V-Matrix + Cholesky decomp.... done (  0.3 sec)
Calculating Nuclear repulsion               ... done (  0.0 sec) ENN=   1835.364193037067 Eh

Diagonalization of the overlap matrix:
Smallest eigenvalue                        ... 1.348e-04
Time for diagonalization                   ...    0.034 sec
Threshold for overlap eigenvalues          ... 1.000e-07
Number of eigenvalues below threshold      ... 0
Time for construction of square roots      ...    0.010 sec
Total time needed                          ...    0.057 sec

-------------------
DFT GRID GENERATION
-------------------

General Integration Accuracy     IntAcc      ... 4.959
Radial Grid Type                 RadialGrid  ... OptM3 with GC (2021)
Angular Grid (max. ang.)         AngularGrid ... 6 (Lebedev-590)
Angular grid pruning method      GridPruning ... 4 (adaptive)
Weight generation scheme         WeightScheme... mBecke (2022)
Basis function cutoff            BFCut       ... 1.0000e-10
Integration weight cutoff        WCut        ... 1.0000e-14
Partially contracted basis set               ... off
Rotationally invariant grid construction     ... off
Angular grids for H and He will be reduced by one unit

Total number of grid points                  ...   457284
Total number of batches                      ...     7164
Average number of points per batch           ...       63
Average number of grid points per atom       ...    12034
Initializing property integral containers    ... done (  0.0 sec)

SHARK setup successfully completed in   5.9 seconds

Maximum memory used throughout the entire STARTUP-calculation: 89.9 MB


           ************************************************************
           *        Program running with 104 parallel MPI-processes   *
           *              working on a common directory               *
           ************************************************************
-------------------------------------------------------------------------------
                                 ORCA GUESS
                   Start orbitals & Density for SCF / CASSCF
-------------------------------------------------------------------------------

------------
SCF SETTINGS
------------
Hamiltonian:
 Density Functional     Method          .... DFT(GTOs)
 Exchange Functional    Exchange        .... PBE
   PBE kappa parameter   XKappa         ....  0.804000
   PBE mue parameter    XMuePBE         ....  0.219520
 Correlation Functional Correlation     .... P86
 LDA part of GGA corr.  LDAOpt          .... VWN-5
 Gradients option       PostSCFGGA      .... off
 Hybrid DFT is turned on
   Fraction HF Exchange ScalHFX         ....  0.690000
   Scaling of DF-GGA-X  ScalDFX         ....  0.310000
   Scaling of DF-GGA-C  ScalDFC         ....  0.403800
   Scaling of DF-LDA-C  ScalLDAC        ....  0.403800
   Perturbative correction              ....  1.000000
 RI-approximation to the Coulomb term is turned on
   Number of AuxJK basis functions      .... 2052
   RI-JK (J+K treated both via RI)      .... on


General Settings:
 Integral files         IntName         .... compas3x_hc_c24h14_0pent_2_dz_rijk
 Hartree-Fock type      HFTyp           .... RHF
 Total Charge           Charge          ....    0
 Multiplicity           Mult            ....    1
 Number of Electrons    NEL             ....  158
 Basis Dimension        Dim             ....  406
 Nuclear Repulsion      ENuc            ....   1835.3641930371 Eh

Convergence Acceleration:
 AO-DIIS                CNVDIIS         .... on
   Start iteration      DIISMaxIt       ....    12
   Startup error        DIISStart       ....  0.200000
   # of expansion vecs  DIISMaxEq       ....     5
   Bias factor          DIISBfac        ....   1.050
   Max. coefficient     DIISMaxC        ....  10.000
 MO-DIIS                CNVKDIIS        .... off
 Trust-Rad. Augm. Hess. CNVTRAH         .... auto
   Auto Start mean grad. ratio tolernc. ....  1.125000
   Auto Start start iteration           ....    50
   Auto Start num. interpolation iter.  ....    10
   Max. Number of Micro iterations      ....    24
   Max. Number of Macro iterations      .... Maxiter - #DIIS iter
   Number of Davidson start vectors     ....     2
   Converg. threshold    (grad. norm)   ....   5.000e-05
   Grad. Scal. Fac. for Micro threshold ....   0.100
   Minimum threshold for Micro iter.    ....   1.000e-02
   NR start threshold (gradient norm)   ....   1.000e-04
   Initial trust radius                 ....   0.400
   Minimum AH scaling param. (alpha)    ....   1.000
   Maximum AH scaling param. (alpha)    .... 1000.000
   Quad. conv. algorithm                .... NR
   White noise on init. David. guess    .... on
   Maximum white noise                  ....   0.010
   Pseudo random numbers                .... off
   Inactive MOs                         .... canonical
   Orbital update algorithm             .... Taylor
   Preconditioner                       .... Diag
   Full preconditioner red. dimension   ....   250
 SOSCF                  CNVSOSCF        .... on
   Start iteration      SOSCFMaxIt      ....   150
   Startup grad/error   SOSCFStart      ....  0.003300
   Hessian update       SOSCFHessUp     .... L-BFGS
 Level Shifting         CNVShift        .... on
   Level shift para.    LevelShift      ....    0.2500
   Turn off err/grad.   ShiftErr        ....    0.0010
 Zerner damping         CNVZerner       .... off
 Static damping         CNVDamp         .... on
   Fraction old density DampFac         ....    0.7000
   Max. Damping (<1)    DampMax         ....    0.9800
   Min. Damping (>=0)   DampMin         ....    0.0000
   Turn off err/grad.   DampErr         ....    0.1000

SCF Procedure:
 Maximum # iterations   MaxIter         ....   125
 SCF integral mode      SCFMode         .... Direct
   Integral package                     .... SHARK and LIBINT hybrid scheme
 Reset frequency        DirectResetFreq ....    20
 Integral Threshold     Thresh          ....  1.000e-10 Eh
 Primitive CutOff       TCut            ....  1.000e-11 Eh

Convergence Tolerance:
 Convergence Check Mode ConvCheckMode   .... Total+1el-Energy
 Convergence forced     ConvForced      .... 0
 Energy Change          TolE            ....  1.000e-06 Eh
 1-El. energy change                    ....  1.000e-03 Eh
 Orbital Gradient       TolG            ....  5.000e-05
 Orbital Rotation angle TolX            ....  5.000e-05
 DIIS Error             TolErr          ....  1.000e-06

------------------------------
INITIAL GUESS: MODEL POTENTIAL
------------------------------
Loading Hartree-Fock densities                     ... done
Calculating cut-offs                               ... done
Initializing the effective Hamiltonian             ... done
Setting up the integral package (SHARK)            ... done
Starting the Coulomb interaction                   ... done (   0.1 sec)
Making the grid                                    ... done (   0.6 sec)
Mapping shells                                     ... done
Starting the XC term evaluation                    ... done (   0.1 sec)
  promolecular density results
     # of electrons  =    158.001838239
     EX              =   -127.050588138
     EC              =      0.198136498
     EX+EC           =   -126.852451640
Transforming the Hamiltonian                       ... done (   0.0 sec)
Diagonalizing the Hamiltonian                      ... done (   0.0 sec)
Back transforming the eigenvectors                 ... done (   0.0 sec)
Now organizing SCF variables                       ... done
                      ------------------
                      INITIAL GUESS DONE (   1.0 sec)
                      ------------------
             **** ENERGY FILE WAS UPDATED (compas3x_hc_c24h14_0pent_2_dz_rijk.en.tmp) ****
Finished Guess after  15.6 sec
Maximum memory used throughout the entire GUESS-calculation: 33.8 MB


           ************************************************************
           *        Program running with 104 parallel MPI-processes   *
           *              working on a common directory               *
           ************************************************************

-------------------------------------------------------------------------------------------
                                      ORCA LEAN-SCF
                              memory conserving SCF solver
-------------------------------------------------------------------------------------------

----------------------------------------D-I-I-S--------------------------------------------
Iteration    Energy (Eh)           Delta-E    RMSDP     MaxDP     DIISErr   Damp  Time(sec)
-------------------------------------------------------------------------------------------
    1    -918.1373763673550457     0.00e+00  3.75e-03  1.06e-01  1.17e-01  0.700   2.3
    2    -917.9654702851430557     1.72e-01  3.18e-03  8.48e-02  1.07e-01  0.700   2.4
                               ***Turning on AO-DIIS***
    3    -918.0473740118359274    -8.19e-02  2.31e-03  6.10e-02  6.38e-02  0.700   2.2
    4    -918.2221193302711981    -1.75e-01  4.51e-03  1.27e-01  2.87e-02  0.000   2.2
    5    -918.5324175650921461    -3.10e-01  5.09e-04  1.34e-02  2.86e-02  0.000   2.2
    6    -918.5430256422714592    -1.06e-02  3.19e-04  6.39e-03  1.52e-02  0.000   2.3
    7    -918.5462532983833626    -3.23e-03  1.52e-04  3.79e-03  5.38e-03  0.000   2.2
                              *** Initializing SOSCF ***
---------------------------------------S-O-S-C-F--------------------------------------
Iteration    Energy (Eh)           Delta-E    RMSDP     MaxDP     MaxGrad    Time(sec)
--------------------------------------------------------------------------------------
    8    -918.5467571435592617    -5.04e-04  5.45e-05  1.37e-03  1.39e-03     2.3
    9    -918.5467991196160256    -4.20e-05  2.52e-05  5.99e-04  1.60e-04     2.0
   10    -918.5468023424118655    -3.22e-06  1.70e-05  3.34e-04  1.20e-04     2.0
   11    -918.5468036443221536    -1.30e-06  6.43e-06  1.62e-04  3.81e-05     2.1
   12    -918.5468038240192072    -1.80e-07  1.97e-06  3.52e-05  9.61e-06     2.0
                 **** Energy Check signals convergence ****

               *****************************************************
               *                     SUCCESS                       *
               *           SCF CONVERGED AFTER  12 CYCLES          *
               *****************************************************

             **** ENERGY FILE WAS UPDATED (compas3x_hc_c24h14_0pent_2_dz_rijk.en.tmp) ****

----------------
TOTAL SCF ENERGY
----------------

Total Energy       :       -918.54680382401921 Eh          -24994.92925 eV

Components:
Nuclear Repulsion  :       1835.36419303706725 Eh           49942.79874 eV
Electronic Energy  :      -2753.91099686108646 Eh          -74937.72799 eV
One Electron Energy:      -4889.26361153091329 Eh         -133043.62668 eV
Two Electron Energy:       2135.35261466982683 Eh           58105.89869 eV

Virial components:
Potential Energy   :      -1831.01570915931416 Eh          -49824.47047 eV
Kinetic Energy     :        912.46890533529495 Eh           24829.54122 eV
Virial Ratio       :          2.00666093765298

DFT components:
N(Alpha)           :       79.000005867056 electrons
N(Beta)            :       79.000005867056 electrons
N(Total)           :      158.000011734113 electrons
E(X)               :      -39.974419768402 Eh       
E(C)               :       -2.359203948338 Eh       
E(XC)              :      -42.333623716740 Eh       

---------------
SCF CONVERGENCE
---------------

  Last Energy change         ...    1.7970e-07  Tolerance :   1.0000e-06
  Last MAX-Density change    ...    3.5210e-05  Tolerance :   1.0000e-05
  Last RMS-Density change    ...    1.9664e-06  Tolerance :   1.0000e-06
  Last DIIS Error            ...    1.3932e-03  Tolerance :   1.0000e-06
  Last Orbital Gradient      ...    9.6126e-06  Tolerance :   5.0000e-05
  Last Orbital Rotation      ...    2.0242e-05  Tolerance :   5.0000e-05


----------------
ORBITAL ENERGIES
----------------

  NO   OCC          E(Eh)            E(eV) 
   0   2.0000     -10.840773      -294.9924 
   1   2.0000     -10.838922      -294.9421 
   2   2.0000     -10.838551      -294.9320 
   3   2.0000     -10.837941      -294.9154 
   4   2.0000     -10.837630      -294.9069 
   5   2.0000     -10.836996      -294.8897 
   6   2.0000     -10.835994      -294.8624 
   7   2.0000     -10.835575      -294.8510 
   8   2.0000     -10.834973      -294.8346 
   9   2.0000     -10.834613      -294.8248 
  10   2.0000     -10.830433      -294.7111 
  11   2.0000     -10.829227      -294.6782 
  12   2.0000     -10.828921      -294.6699 
  13   2.0000     -10.828816      -294.6671 
  14   2.0000     -10.828152      -294.6490 
  15   2.0000     -10.828085      -294.6472 
  16   2.0000     -10.827968      -294.6440 
  17   2.0000     -10.827522      -294.6318 
  18   2.0000     -10.827190      -294.6228 
  19   2.0000     -10.827031      -294.6185 
  20   2.0000     -10.826693      -294.6093 
  21   2.0000     -10.826588      -294.6064 
  22   2.0000     -10.825727      -294.5830 
  23   2.0000     -10.825675      -294.5816 
  24   2.0000      -1.091558       -29.7028 
  25   2.0000      -1.055440       -28.7200 
  26   2.0000      -1.045854       -28.4591 
  27   2.0000      -1.014587       -27.6083 
  28   2.0000      -0.986403       -26.8414 
  29   2.0000      -0.962198       -26.1827 
  30   2.0000      -0.951814       -25.9002 
  31   2.0000      -0.914946       -24.8969 
  32   2.0000      -0.908671       -24.7262 
  33   2.0000      -0.904595       -24.6153 
  34   2.0000      -0.879802       -23.9406 
  35   2.0000      -0.860071       -23.4037 
  36   2.0000      -0.790968       -21.5233 
  37   2.0000      -0.777765       -21.1641 
  38   2.0000      -0.771996       -21.0071 
  39   2.0000      -0.768617       -20.9151 
  40   2.0000      -0.733798       -19.9677 
  41   2.0000      -0.719444       -19.5771 
  42   2.0000      -0.695755       -18.9325 
  43   2.0000      -0.674684       -18.3591 
  44   2.0000      -0.656833       -17.8733 
  45   2.0000      -0.647654       -17.6235 
  46   2.0000      -0.625771       -17.0281 
  47   2.0000      -0.604477       -16.4487 
  48   2.0000      -0.603334       -16.4176 
  49   2.0000      -0.583792       -15.8858 
  50   2.0000      -0.575252       -15.6534 
  51   2.0000      -0.572039       -15.5660 
  52   2.0000      -0.554120       -15.0784 
  53   2.0000      -0.547273       -14.8921 
  54   2.0000      -0.536661       -14.6033 
  55   2.0000      -0.535411       -14.5693 
  56   2.0000      -0.528274       -14.3751 
  57   2.0000      -0.524927       -14.2840 
  58   2.0000      -0.516727       -14.0609 
  59   2.0000      -0.512334       -13.9413 
  60   2.0000      -0.495726       -13.4894 
  61   2.0000      -0.482414       -13.1272 
  62   2.0000      -0.478595       -13.0232 
  63   2.0000      -0.472803       -12.8656 
  64   2.0000      -0.464822       -12.6484 
  65   2.0000      -0.457831       -12.4582 
  66   2.0000      -0.452151       -12.3037 
  67   2.0000      -0.440591       -11.9891 
  68   2.0000      -0.428994       -11.6735 
  69   2.0000      -0.418374       -11.3845 
  70   2.0000      -0.411785       -11.2052 
  71   2.0000      -0.391608       -10.6562 
  72   2.0000      -0.364934        -9.9304 
  73   2.0000      -0.349776        -9.5179 
  74   2.0000      -0.318545        -8.6680 
  75   2.0000      -0.308655        -8.3989 
  76   2.0000      -0.299960        -8.1623 
  77   2.0000      -0.261586        -7.1181 
  78   2.0000      -0.232298        -6.3212 
  79   0.0000      -0.003827        -0.1041 
  80   0.0000       0.023482         0.6390 
  81   0.0000       0.054798         1.4911 
  82   0.0000       0.064930         1.7668 
  83   0.0000       0.079518         2.1638 
  84   0.0000       0.115874         3.1531 
  85   0.0000       0.133679         3.6376 
  86   0.0000       0.138829         3.7777 
  87   0.0000       0.144701         3.9375 
  88   0.0000       0.147466         4.0128 
  89   0.0000       0.159053         4.3280 
*Only the first 10 virtual orbitals were printed.
-------
TIMINGS
-------

Total SCF time: 0 days 0 hours 0 min 41 sec 

Total time                  ....      41.049 sec
Sum of individual times     ....      40.773 sec  ( 99.3%)

SCF preparation             ....      14.557 sec  ( 35.5%)
Fock matrix formation       ....      20.898 sec  ( 50.9%)
  Startup                   ....       1.358 sec  (  6.5% of F)
  RI-JK                     ....      12.944 sec  ( 61.9% of F)
  XC integration            ....       4.352 sec  ( 20.8% of F)
    XC Preparation          ....       0.000 sec  (  0.0% of XC)
    Basis function eval.    ....       0.320 sec  (  7.4% of XC)
    Density eval.           ....       0.242 sec  (  5.6% of XC)
    XC-Functional eval.     ....       0.043 sec  (  1.0% of XC)
    XC-Potential eval.      ....       0.323 sec  (  7.4% of XC)
Diagonalization             ....       0.000 sec  (  0.0%)
Density matrix formation    ....       1.388 sec  (  3.4%)
Total Energy calculation    ....       0.827 sec  (  2.0%)
Population analysis         ....       0.000 sec  (  0.0%)
Orbital Transformation      ....       0.315 sec  (  0.8%)
Orbital Orthonormalization  ....       0.000 sec  (  0.0%)
DIIS solution               ....       2.019 sec  (  4.9%)
SOSCF solution              ....       0.710 sec  (  1.7%)
Finished LeanSCF after  41.3 sec

Maximum memory used throughout the entire LEANSCF-calculation: 99.9 MB


           ************************************************************
           *        Program running with 104 parallel MPI-processes   *
           *              working on a common directory               *
           ************************************************************

------------------------------------------------------------------------------
                                ORCA  MP2 
------------------------------------------------------------------------------


-------------
RI-MP2 ENERGY
-------------
Dimension of the orbital basis            ...  406
Dimension of the AuxC basis               ... 1348
Memory devoted to MP2                     ... 4096 MB   
Data format for matrix containers         ... DOUBLE
Compression type for matrix containers    ... UNCOMPRESSED
Scaling for aa/bb pairs                   ...   5.710e-02
Scaling for ab pairs                      ...   5.979e-01
Overall scaling of the MP2 energy         ...   1.000e+00

-----------------------
SHARK RI TRANSFORMATION
-----------------------

Number of basis functions                ...    406
Number of aux functions                  ...   1348
Number of operators                      ...      1
Generation of IJK                        ... NO
Generation of IAK                        ... YES
Generation of ABK                        ... NO
Orbital Range Operator  0:    0-  78 to   79- 405

Aux basis identifier                     ...   AUXC
Contraction scheme used                  ... SEGMENTED
Do orthogonalization                     ... YES
All operator combinations                ... NO
Transpose (ia|K)                         ... NO
Integral generator used                  ... LIBINT
Starting integral generation + trafo... 
Half trafo (segmented) done. Total time =  0.4 sec. integrals=  0.1 sec trafo=  0.0 sec
Integral generation and half transformation done (  0.4 sec)

Reading or making V^(-1/2)          ... done (  0.1 sec)
Sorting IAK integrals               ... done (  1.5 sec)

SHARK RI integral transformation done. Total time =  2.0 sec.

Opening buffers                              ... done

Starting loop over batches of integrals:

Operator 0  - window                       ... (  0- 78)x( 79-405)
Operator 0  - Memory available             ...  4096 MB
Operator 0  - Memory needed per MO         ...   3.4 MB
Operator 0  - Number of orbitals per batch ... 1
Operator 0  - Number of batches            ... 1

OPERATOR  0   PASS   0:  MOs     0 ...    0 +    1 ...    1 +    2 ...    2 +    3 ...    3
                            +    4 ...    4 +    5 ...    5 +    6 ...    6 +    7 ...    7
                            +    8 ...    8 +    9 ...    9 +   10 ...   10 +   11 ...   11
                            +   12 ...   12 +   13 ...   13 +   14 ...   14 +   15 ...   15
                            +   16 ...   16 +   17 ...   17 +   18 ...   18 +   19 ...   19
                            +   20 ...   20 +   21 ...   21 +   22 ...   22 +   23 ...   23
                            +   24 ...   24 +   25 ...   25 +   26 ...   26 +   27 ...   27
                            +   28 ...   28 +   29 ...   29 +   30 ...   30 +   31 ...   31
                            +   32 ...   32 +   33 ...   33 +   34 ...   34 +   35 ...   35
                            +   36 ...   36 +   37 ...   37 +   38 ...   38 +   39 ...   39
                            +   40 ...   40 +   41 ...   41 +   42 ...   42 +   43 ...   43
                            +   44 ...   44 +   45 ...   45 +   46 ...   46 +   47 ...   47
                            +   48 ...   48 +   49 ...   49 +   50 ...   50 +   51 ...   51
                            +   52 ...   52 +   53 ...   53 +   54 ...   54 +   55 ...   55
                            +   56 ...   56 +   57 ...   57 +   58 ...   58 +   59 ...   59
                            +   60 ...   60 +   61 ...   61 +   62 ...   62 +   63 ...   63
                            +   64 ...   64 +   65 ...   65 +   66 ...   66 +   67 ...   67
                            +   68 ...   68 +   69 ...   69 +   70 ...   70 +   71 ...   71
                            +   72 ...   72 +   73 ...   73 +   74 ...   74 +   75 ...   75
                            +   76 ...   76 +   77 ...   77 +   78 ...   78
  Reading integrals       ... ok
Time spent in pair loops =     0.735 sec

-----------------------------------------------
 RI-MP2 CORRELATION ENERGY:     -1.608806706 Eh
-----------------------------------------------


-------
TIMINGS
-------

Total time                :    3.354 sec
Integral trafo            :    2.073 sec ( 61.8%)
K(i,j) operators          :    0.008 sec (  0.2%)
T(i,j) pair energies      :    0.001 sec (  0.0%)
V**(-1/2)                 :    0.543 sec ( 16.2%)


---------------------------------------
MP2 TOTAL ENERGY:     -920.155610530 Eh
---------------------------------------

Maximum memory used throughout the entire MP2-calculation: 40.8 MB


-------------------------------------------------------------------------------
                          DFT DISPERSION CORRECTION                            
                                                                               
                                DFTD4 V3.4.0                                   
-------------------------------------------------------------------------------
The REV-DSD-PBEP86-2021 functional is recognized
A user input s6-coefficient scaling factor has been recognized
A user input a1-coefficient scaling factor has been recognized
A user input s8-coefficient scaling factor has been recognized
A user input a2-coefficient scaling factor has been recognized
A user input s9-coefficient scaling factor has been recognized
Active option DFTDOPT                   ...         5   

-------------------------   ----------------
Dispersion correction           -0.038757749
-------------------------   ----------------


-------------------------   --------------------
FINAL SINGLE POINT ENERGY      -920.194368279113
-------------------------   --------------------



           ************************************************************
           *        Program running with 104 parallel MPI-processes   *
           *              working on a common directory               *
           ************************************************************

------------------------------------------------------------------------------
                              ORCA PROPERTY CALCULATIONS
------------------------------------------------------------------------------

GBWName                                 ... compas3x_hc_c24h14_0pent_2_dz_rijk.gbw
Number of atoms                         ...     38
Number of basis functions               ...    406
Max core memory                         ...   1024 MB

Electric properties:
Dipole moment                           ... YES
Quadrupole moment                       ...  NO
Static polarizability (Dipole/Dipole)   ...  NO
Static polarizability (Dipole/Quad.)    ...  NO
Static polarizability (Quad./Quad.)     ...  NO
Static polarizability (Velocity)        ...  NO

Atomic electric properties:
Dipole moment                           ...  NO
Quadrupole moment                       ...  NO
Static polarizability                   ...  NO

Choice of electric origin               ... Center of mass
Position of electric origin             ...     0.040123    -0.130327    -0.043089

General magnetic properties:
Magnetizability                         ...  NO

EPR properties:
g-Tensor (aka g-matrix)                 ...  NO
Zero-Field splitting spin-orbit         ...  NO
Zero-field splitting spin-spin          ...  NO
Hyperfine couplings                     ...  NO (   0 nuclei)
Quadrupole couplings                    ...  NO (   0 nuclei)
Contact density                         ...  NO (   0 nuclei)

NMR properties:
Chemical shifts                         ...  NO (   0 nuclei)
Spin-rotation constants                 ...  NO (   0 nuclei)
Spin-spin couplings                     ...  NO (   0 nuclei,    0 pairs)

Choice of magnetic origin               ... GIAO
Position of magnetic origin             ...     0.000000     0.000000     0.000000

Properties with geometric perturbations:
SCF Hessian                             ...  NO
IR spectrum                             ...  NO
VCD spectrum                            ...  NO
X-ray spectroscopy properties:
SCF XES/XAS/RIXS spectra                ...  NO


-------------
DIPOLE MOMENT
-------------

Method             : SCF
Type of density    : Electron Density
Multiplicity       :   1
Irrep              :   0
Energy             :  -918.5468038240192072 Eh
Relativity type    : 
Basis              : AO
                                X                 Y                 Z
Electronic contribution:      0.855972335      -2.671678995      -0.873193315
Nuclear contribution   :     -0.826280690       2.685985567       0.885318008
                        -----------------------------------------
Total Dipole Moment    :      0.029691645       0.014306573       0.012124694
                        -----------------------------------------
Magnitude (a.u.)       :      0.035118087
Magnitude (Debye)      :      0.089263083



--------------------
Rotational spectrum 
--------------------
 
Rotational constants in cm-1:             0.012313             0.008323             0.005112 
Rotational constants in MHz :           369.135205           249.511304           153.265449 

Dipole components along the rotational axes: 
x,y,z [a.u.] :    -0.022107     0.022200     0.015865 
x,y,z [Debye]:    -0.056193     0.056428     0.040326 

 

Dipole moment calculation done in   0.1 sec 

Maximum memory used throughout the entire PROP-calculation: 25.2 MB

--------------------------------
SUGGESTED CITATIONS FOR THIS RUN
--------------------------------

Below you find a list of papers that are relevant to this ORCA run
We neither can nor want to force you to cite these papers, but we appreciate if you do
You receive ORCA, which is the product of decades of hard work by many enthusiastic individuals, for free
The only thing we kindly ask in return is that you cite our papers,
We deeply appreciate it, if you show your appreciation for ORCA by not just citing the generic ORCA reference.

Please note that relegating all ORCA citations to the supporting information does *not* help us.
SI sections are not indexed - citations you put there will not count into any citation statistics
But we need these citations in order to attract the funding resources that allow us to do what we are doing

Therefore, if you are a happy ORCA user, please consider citing a few of the papers listed below in the main body of your paper

In addition to the list printed below, the program has created the file compas3x_hc_c24h14_0pent_2_dz_rijk.bibtex that contains the list in bibtex format
You can import this file easily into all common literature databanks and citation aid programs


List of essential papers. We consider these as the minimum necessary citations

  1. Neese,F.
     Software update: the ORCA program system, version 5.0
     WIRES Comput. Molec. Sci., 2022 12(1)e1606
     doi.org/10.1002/wcms.1606

List of papers to cite with high priority. The work reported in these papers was absolutely
necessary for this run to complete.
Our perspective: the developers of density functionals and basis sets usually get cited in chemistry papers
Good! But without the algorithms to do something with them, the functionals or basis sets would not do anything.
Hence, in our opinion, the algorithm design and method developments papers are equally worthy of getting cited

  1. Neese,F.
     An improvement of the resolution of the identity approximation for the formation of the Coulomb matrix
     J. Comp. Chem., 2003 24(14)1740-1747
     doi.org/10.1002/jcc.10318
  2. Kossmann,S.; Neese,F.
     Comparison of two efficient approximate Hartee-Fock approaches
     Chem. Phys. Lett., 2009 481 240-243
     doi.org/10.1016/j.cplett.2009.09.073
  3. Neese,F.
     The SHARK Integral Generation and Digestion System
     J. Comp. Chem., 2022  1-16
     doi.org/10.1002/jcc.26942
  4. Caldeweyher,E.; Bannwarth,C.; Grimme,S.
     Extension of the D3 dispersion coefficient model
     J. Chem. Phys., 2017 147 034112
     doi.org/10.1063/1.4993215
  5. Caldeweyher,E.; Ehlert,S.; Hansen,A.; Neugebauer,H.; Spicher,S.; Bannwarth,C.; Grimme,S.
     A generally applicable atomic-charge dependent London dispersion correction
     J. Chem. Phys., 2019 150 154122
     doi.org/10.1063/1.5090222
  6. Caldeweyher,E.; Mewes,J.; Ehlert,S.; Grimme,S.
     Extension and evaluation of the D4 London-dispersion model for periodic systems
     Phys. Chem. Chem. Phys., 2020 22(16)8499-8512
     doi.org/10.1039/D0CP00502A
  7. Wittmann,L.; Gordiy,I.; Friede,M.; Helmich-Paris,B.; Grimme,S.; Hansen,A.; Bursch,M.
     Extension of the D3 and D4 London Dispersion Corrections to the full Actinides Series
     Phys. Chem. Chem. Phys., 2024 26(32)21379-21394
     doi.org/https://doi.org/10.1039/D4CP01514B 

List of suggested additional citations. These are papers that are important in the 'surrounding' of 
of this run, or papers that preceded the highly important papers. If you like your results we are grateful for a citation.

  1. Neese,F.
     The ORCA program system
     WIRES Comput. Molec. Sci., 2012 2(1)73-78
     doi.org/10.1002/wcms.81
  2. Neese,F.
     Software update: the ORCA program system, version 4.0
     WIRES Comput. Molec. Sci., 2018 8(1)1-6
     doi.org/10.1002/wcms.1327
  3. Neese,F.; Wennmohs,F.; Becker,U.; Riplinger,C.
     The ORCA quantum chemistry program package
     J. Chem. Phys., 2020 152 Art. No. L224108
     doi.org/10.1063/5.0004608

List of optional additional citations

  1. Neese,F.
     Approximate second-order SCF convergence for spin unrestricted wavefunctions
     Chem. Phys. Lett., 2000 325(1-3)93-98
     doi.org/10.1016/s0009-2614(00)00662-x

Timings for individual modules:

Sum of individual times          ...      117.612 sec (=   1.960 min)
Startup calculation              ...       22.033 sec (=   0.367 min)  18.7 %
SCF iterations                   ...       60.038 sec (=   1.001 min)  51.0 %
Property calculations            ...       16.116 sec (=   0.269 min)  13.7 %
MP2 module                       ...       19.424 sec (=   0.324 min)  16.5 %
                             ****ORCA TERMINATED NORMALLY****
TOTAL RUN TIME: 0 days 0 hours 2 minutes 25 seconds 570 msec
