
                                 *****************
                                 * O   R   C   A *
                                 *****************

                                            #,                                       
                                            ###                                      
                                            ####                                     
                                            #####                                    
                                            ######                                   
                                           ########,                                 
                                     ,,################,,,,,                         
                               ,,#################################,,                 
                          ,,##########################################,,             
                       ,#########################################, ''#####,          
                    ,#############################################,,   '####,        
                  ,##################################################,,,,####,       
                ,###########''''           ''''###############################       
              ,#####''   ,,,,##########,,,,          '''####'''          '####       
            ,##' ,,,,###########################,,,                        '##       
           ' ,,###''''                  '''############,,,                           
         ,,##''                                '''############,,,,        ,,,,,,###''
      ,#''                                            '''#######################'''  
     '                                                          ''''####''''         
             ,#######,   #######,   ,#######,      ##                                
            ,#'     '#,  ##    ##  ,#'     '#,    #''#        ,####,   ,####,        
            ##       ##  ##   ,#'  ##            #'  '#       #'       #'  '#        
            ##       ##  #######   ##           ,######,      #####,   #    #        
            '#,     ,#'  ##    ##  '#,     ,#' ,#      #,     #,   #   #,  ,#        
             '#######'   ##     ##  '#######'  #'      '#     '####' # '####'        



                #########################################################
                #                        -***-                          #
                #          Department of theory and spectroscopy        #
                #                                                       #
                #                      Frank Neese                      #
                #                                                       #
                #     Directorship, Architecture, Infrastructure        #
                #                    SHARK, DRIVERS                     #
                #        Core code/Algorithms in most modules           #
                #                                                       #
                #        Max Planck Institute fuer Kohlenforschung      #
                #                Kaiser Wilhelm Platz 1                 #
                #                 D-45470 Muelheim/Ruhr                 #
                #                      Germany                          #
                #                                                       #
                #                  All rights reserved                  #
                #                        -***-                          #
                #########################################################


                         Program Version 6.0.1  -  RELEASE   -


 With contributions from (in alphabetic order):
[Max-Planck-Institut fuer Kohlenforschung]                               
  Daniel Aravena         : Magnetic Suceptibility                        
  Michael Atanasov       : Ab Initio Ligand Field Theory (pilot matlab implementation)
  Alexander A. Auer      : GIAO ZORA, VPT2 properties, NMR spectrum      
  Ute Becker             : All parallelization in ORCA, NUMFREQ, NUMCALC 
  Giovanni Bistoni       : ED, misc. LED, open-shell LED, HFLD           
  Martin Brehm           : Molecular dynamics                            
  Dmytro Bykov           : pre 5.0 version of the SCF Hessian            
  Marcos Casanova-Páez   : Triplet and SCS-CIS(D). UHF-(DLPNO)-IP/EA/STEOM-CCSD. UHF-CVS-IP/STEOM-CCSD   
  Vijay G. Chilkuri      : MRCI spin determinant printing, contributions to CSF-ICE 
  Pauline Colinet        : FMM embedding                                 
  Dipayan Datta          : RHF DLPNO-CCSD density                        
  Achintya Kumar Dutta   : EOM-CC, STEOM-CC                              
  Nicolas Foglia         : Exact transition moments, OPA infrastructure, MCD improvements    
  Dmitry Ganyushin       : Spin-Orbit,Spin-Spin,Magnetic field MRCI      
  Miquel Garcia-Rates    : C-PCM and meta-GGA Hessian, CCSD/C-PCM, Gaussian charge scheme 
  Tiago L. C. Gouveia    : GS-ROHF, GS-ROCIS                             
  Yang Guo               : DLPNO-NEVPT2, F12-NEVPT2, CIM, IAO-localization        
  Andreas Hansen         : Spin unrestricted coupled pair/coupled cluster methods 
  Ingolf Harden          : AUTO-CI MPn and infrastructure                
  Benjamin Helmich-Paris : MC-RPA, TRAH-(SCF,CASSCF), AVAS, COSX integrals, SCF dyn. polar. 
  Lee Huntington         : MR-EOM, pCC                                   
  Robert Izsak           : Overlap fitted RIJCOSX, COSX-SCS-MP3, EOM     
  Riya Kayal             : Wick's Theorem for AUTO-CI, AUTO-CI UHF-CCSDT 
  Emily Kempfer          : AUTO-CI, RHF CISDT and CCSDT                  
  Christian Kollmar      : KDIIS, OOCD, Brueckner-CCSD(T), CCSD density, CASPT2, CASPT2-K, improved NEVPT2 
  Axel Koslowski         : Symmetry handling                             
  Simone Kossmann        : meta-GGA functionals, TD-DFT gradient, OOMP2, (MP2 Hessian; deprecated post 5.0) 
  Lucas Lang             : DCDCAS                                        
  Marvin Lechner         : AUTO-CI (C++ implementation), FIC-MRCC        
  Spencer Leger          : CASSCF response                               
  Dagmar Lenk            : GEPOL surface, SMD, ORCA-2-JSON               
  Dimitrios Liakos       : Extrapolation schemes; Compound Job, initial MDCI parallelization 
  Dimitrios Manganas     : Further ROCIS development; embedding schemes. LFT, Crystal Embedding 
  Dimitrios Pantazis     : SARC Basis sets                               
  Anastasios Papadopoulos: AUTO-CI, single reference methods and gradients 
  Taras Petrenko         : pre 6.0 DFT Hessian and TD-DFT gradient, (ASA, deprecated), ECA, 1-Electron XAS/XES, NRVS 
  Peter Pinski           : DLPNO-MP2, DLPNO-MP2 Gradient                 
  Christoph Reimann      : Effective Core Potentials                     
  Marius Retegan         : Local ZFS, SOC                                
  Christoph Riplinger    : Optimizer, TS searches, QM/MM, DLPNO-CCSD(T), (RO)-DLPNO pert. Triples 
  Michael Roemelt        : Original ROCIS implementation                 
  Masaaki Saitow         : Open-shell DLPNO-CCSD energy and density      
  Barbara Sandhoefer     : DKH picture change effects                    
  Kantharuban Sivalingam : CASSCF convergence/infrastructure, NEVPT2 and variants, FIC-MRCI 
  Bernardo de Souza      : ESD, SOC TD-DFT                               
  Georgi L. Stoychev     : AutoAux, RI-MP2 NMR, DLPNO-MP2 response, X2C  
  Van Anh Tran           : RI-MP2 g-tensors                              
  Willem Van den Heuvel  : Paramagnetic NMR                              
  Zikuan Wang            : NOTCH, Electric field optimization            
  Frank Wennmohs         : Technical directorship and infrastructure     
  Hang Xu                : AUTO-CI-Response properties                   
                                                                         
[FACCTs GmbH]                                                            
  Markus Bursch, Miquel Garcia-Rates, Christoph Riplinger, Bernardo de Souza, Georgi L. Stoychev 
                                                                 
  APM, Basis sets (HGBS, AHGBS, def-TZVP (Ac-Lr), def2-XVPD (La-Lu)), CI-OPT, improved COSX, DLPNO-Multilevel,           
  DOCKER, DRACO, updates on ESD, GOAT, IRC, LR-CPCM, MBIS, meta-GGA TD-DFT gradient, ML-optimized integration grids, 
  MM, NACMEs, nearIR, NEB, NEB-TS, NL-DFT gradient (VV10), 2- and 3-layer-ONIOM, interface openCOSMO-RS, QMMM,   
  Crystal-QMMM, SF, symmetry and pop. for TD-DFT, r2SCAN hybrids, SOLVATOR                                   
                                                                         
[Other institutions]                                                     
  V. Asgeirsson          : NEB                                           
  Christoph Bannwarth    : sTDA-DFT, sTD-DFT, PBEh-3c, B97-3c, D3        
  Sebastian Ehlert       : rSCAN, r2SCAN, r2SCAN-3c, D4, dhf basis sets  
  Marvin Friede          : D4 for Fr, Ra, Ac-Lr                          
  Lars Goerigk           : TD-DFT with DH, B97 family of functionals     
  Stefan Grimme          : VdW corrections, initial TS optimization, DFT functionals, gCP, sTDA/sTD-DF 
  Waldemar Hujo          : DFT-NL                                        
  H. Jonsson             : NEB                                           
  Holger Kruse           : gCP                                           
  Marcel Mueller         : wB97X-3c, vDZP basis set                      
  Hagen Neugebauer       : wr2SCAN                                       
  Tobias Risthaus        : range-separated hybrid DFT                    
  Lukas Wittmann         : regularized MP2, r2SCAN double-hybrids, wr2SCAN        
                                                                         
We gratefully acknowledge several colleagues who have allowed us to      
interface, adapt or use parts of their codes:                            
  Ed Valeev, F. Pavosevic, A. Kumar             : LibInt (2-el integral package), F12 methods 
  Garnet Chan, S. Sharma, J. Yang, R. Olivares  : DMRG                   
  Ulf Ekstrom                                   : XCFun DFT Library      
  Mihaly Kallay                                 : mrcc  (arbitrary order and MRCC methods)
  Frank Weinhold                                : gennbo (NPA and NBO analysis)           
  Simon Mueller                                 : openCOSMO-RS                            
  Christopher J. Cramer and Donald G. Truhlar   : smd solvation model                     
  S Lehtola, MJT Oliveira, MAL Marques          : LibXC Library                           
  Liviu Ungur et al                             : ANISO software                          


 Your calculation uses the libint2 library for the computation of 2-el integrals
 For citations please refer to: http://libint.valeyev.net

 Your ORCA version has been built with support for libXC version: 6.2.2
 For citations please refer to: https://libxc.gitlab.io

 This ORCA versions uses:
   CBLAS   interface :  Fast vector & matrix operations
   LAPACKE interface :  Fast linear algebra routines
   SCALAPACK package :  Parallel linear algebra routines
   Shared memory     :  Shared parallel matrices
   BLAS/LAPACK       :  OpenBLAS 0.3.27  USE64BITINT DYNAMIC_ARCH NO_AFFINITY SapphireRapids SINGLE_THREADED
        Core in use  :  SapphireRapids
   Copyright (c) 2011-2014, The OpenBLAS Project


Warning! Weird basis set assignment to AuxJK basis!


***************************************
The coordinates will be read from file: /g/data/kx58/rs2200/dhdft/inputs/compas3D-xyzs/hc_c34h16_0pent_1.xyz
***************************************


Your calculation utilizes the atom-pairwise dispersion correction
based on EEQ partial charges (D4)


================================================================================

----- Orbital basis set information -----
Your calculation utilizes the basis: def2-QZVPP
   F. Weigend and R. Ahlrichs, Phys. Chem. Chem. Phys. 7, 3297 (2005).

----- AuxC basis set information -----
Your calculation utilizes the auxiliary basis: def2-QZVPP/C
  H-La, Hf-Rn : A. Hellweg, C. Hattig, S. Hofener and W. Klopper, Theor. Chem. Acc. 117, 587 (2007).
        Ce-Lu : J. Chmela and M. E. Harding, Mol. Phys. (2018).

----- AuxJK basis set information -----
Your calculation utilizes the auxiliary basis: def2-QZVPP/C
  H-La, Hf-Rn : A. Hellweg, C. Hattig, S. Hofener and W. Klopper, Theor. Chem. Acc. 117, 587 (2007).
        Ce-Lu : J. Chmela and M. E. Harding, Mol. Phys. (2018).

================================================================================
                                        WARNINGS
                       Please study these warnings very carefully!
================================================================================


WARNING: No MP2 level density has been requested!
         To calculate MP2 level properties use
         %mp2 Density relaxed end
         or
         %mp2 Density unrelaxed end
         Otherwise for double-hybrid DFT only the energy is correct!

================================================================================
                                       INPUT FILE
================================================================================
NAME = compas3D_hc_c34h16_0pent_1_qz_riri.inp
|  1> ! RKS revDSD-PBEP86-D4/2021 defgrid3  RIJK NOPOP NoFrozencore NoUseSym
|  2> 
|  3> %basis
|  4> Basis "def2-QZVPP"
|  5> AuxJK "def2-QZVPP/C"
|  6> AuxC "def2-QZVPP/C"
|  7> end
|  8> 
|  9> %method
| 10> ScalHFX 0.69
| 11> ScalDFX 0.31
| 12> ScalDFC 0.4038
| 13> ScalLDAC 0.4038
| 14> 
| 15> D4S6 0.4612
| 16> D4S8 0.0
| 17> D4A1 0.44
| 18> D4A2 3.60
| 19> end
| 20> 
| 21> %mp2
| 22> PS 0.5979
| 23> PT 0.0571
| 24> 
| 25> end
| 26> 
| 27> %pal
| 28> nprocs 104
| 29> end
| 30> 
| 31> *XYZFILE 0 1 /g/data/kx58/rs2200/dhdft/inputs/compas3D-xyzs/hc_c34h16_0pent_1.xyz
| 32> 
| 33>                          ****END OF INPUT****
================================================================================

                       ****************************
                       * Single Point Calculation *
                       ****************************

---------------------------------
CARTESIAN COORDINATES (ANGSTROEM)
---------------------------------
  C      1.304067   -1.164732   -0.000137
  C     -0.057436   -0.731469   -0.000071
  C     -0.357092    0.641065    0.001586
  C      0.699958    1.602530    0.002622
  C      2.046168    1.178314    0.003296
  C      2.350952   -0.217882    0.002375
  C      1.612875   -2.570484   -0.003424
  C      0.580295   -3.544466   -0.006867
  C     -0.818836   -3.102171   -0.003856
  C     -1.120239   -1.713072   -0.001111
  C     -2.472970   -1.288777    0.001174
  C     -2.785087    0.140694    0.003710
  C     -1.732233    1.090273    0.002853
  C     -2.037046    2.478648    0.004090
  C     -0.949658    3.464005    0.001945
  C      0.394842    3.009091    0.002438
  C      3.706709   -0.688238    0.003422
  C      4.002215   -2.009351    0.000322
  C      2.968199   -2.996495   -0.004008
  C     -1.866892   -4.023396   -0.003040
  C     -3.189205   -3.604332   -0.000819
  C     -3.487772   -2.253943    0.000950
  C     -4.109794    0.595184    0.007069
  C     -4.400987    1.947198    0.009306
  C     -3.373595    2.879152    0.007749
  C      3.276027   -4.365823   -0.008963
  C      2.264101   -5.304377   -0.013910
  C      0.931302   -4.894035   -0.012942
  C      1.449319    3.961296    0.002193
  C      2.800645    3.494890    0.003454
  C      3.082631    2.170805    0.004116
  C     -1.192945    4.837223   -0.000540
  C     -0.152392    5.765766   -0.001269
  C      1.158693    5.334465    0.000472
  H      4.525435    0.027317    0.006863
  H      5.041882   -2.343467    0.000984
  H     -1.658765   -5.091397   -0.003797
  H     -3.994722   -4.341030   -0.000325
  H     -4.532906   -1.952746    0.002292
  H     -4.934932   -0.113546    0.008322
  H     -5.439932    2.281968    0.012350
  H     -3.629821    3.936645    0.009923
  H      4.323670   -4.674078   -0.009191
  H      2.500450   -6.370150   -0.018601
  H      0.158170   -5.660040   -0.017349
  H      3.606664    4.231753    0.003731
  H      4.124800    1.860758    0.004835
  H     -2.214756    5.211690   -0.002248
  H     -0.382175    6.832976   -0.003208
  H      1.983120    6.050794    0.000236

----------------------------
CARTESIAN COORDINATES (A.U.)
----------------------------
  NO LB      ZA    FRAG     MASS         X           Y           Z
   0 C     6.0000    0    12.011    2.464330   -2.201024   -0.000258
   1 C     6.0000    0    12.011   -0.108538   -1.382277   -0.000135
   2 C     6.0000    0    12.011   -0.674806    1.211438    0.002997
   3 C     6.0000    0    12.011    1.322729    3.028343    0.004955
   4 C     6.0000    0    12.011    3.866697    2.226691    0.006228
   5 C     6.0000    0    12.011    4.442655   -0.411737    0.004488
   6 C     6.0000    0    12.011    3.047892   -4.857511   -0.006471
   7 C     6.0000    0    12.011    1.096599   -6.698069   -0.012977
   8 C     6.0000    0    12.011   -1.547376   -5.862254   -0.007287
   9 C     6.0000    0    12.011   -2.116944   -3.237237   -0.002100
  10 C     6.0000    0    12.011   -4.673236   -2.435435    0.002219
  11 C     6.0000    0    12.011   -5.263051    0.265873    0.007011
  12 C     6.0000    0    12.011   -3.273446    2.060317    0.005392
  13 C     6.0000    0    12.011   -3.849459    4.683965    0.007730
  14 C     6.0000    0    12.011   -1.794594    6.546020    0.003675
  15 C     6.0000    0    12.011    0.746142    5.686357    0.004607
  16 C     6.0000    0    12.011    7.004665   -1.300582    0.006466
  17 C     6.0000    0    12.011    7.563090   -3.797123    0.000608
  18 C     6.0000    0    12.011    5.609082   -5.662555   -0.007574
  19 C     6.0000    0    12.011   -3.527914   -7.603116   -0.005745
  20 C     6.0000    0    12.011   -6.026724   -6.811200   -0.001548
  21 C     6.0000    0    12.011   -6.590935   -4.259336    0.001796
  22 C     6.0000    0    12.011   -7.766385    1.124735    0.013359
  23 C     6.0000    0    12.011   -8.316660    3.679672    0.017586
  24 C     6.0000    0    12.011   -6.375171    5.440809    0.014644
  25 C     6.0000    0    12.011    6.190794   -8.250209   -0.016938
  26 C     6.0000    0    12.011    4.278531  -10.023821   -0.026286
  27 C     6.0000    0    12.011    1.759907   -9.248385   -0.024457
  28 C     6.0000    0    12.011    2.738816    7.485765    0.004145
  29 C     6.0000    0    12.011    5.292452    6.604384    0.006528
  30 C     6.0000    0    12.011    5.825329    4.102227    0.007778
  31 C     6.0000    0    12.011   -2.254340    9.141026   -0.001020
  32 C     6.0000    0    12.011   -0.287979   10.895718   -0.002399
  33 C     6.0000    0    12.011    2.189612   10.080677    0.000892
  34 H     1.0000    0     1.008    8.551832    0.051621    0.012969
  35 H     1.0000    0     1.008    9.527777   -4.428512    0.001859
  36 H     1.0000    0     1.008   -3.134612   -9.621346   -0.007175
  37 H     1.0000    0     1.008   -7.548931   -8.203358   -0.000614
  38 H     1.0000    0     1.008   -8.565950   -3.690155    0.004331
  39 H     1.0000    0     1.008   -9.325670   -0.214572    0.015726
  40 H     1.0000    0     1.008  -10.279982    4.312295    0.023338
  41 H     1.0000    0     1.008   -6.859368    7.439181    0.018751
  42 H     1.0000    0     1.008    8.170553   -8.832727   -0.017368
  43 H     1.0000    0     1.008    4.725166  -12.037839   -0.035151
  44 H     1.0000    0     1.008    0.298898  -10.695925   -0.032785
  45 H     1.0000    0     1.008    6.815607    7.996854    0.007050
  46 H     1.0000    0     1.008    7.794743    3.516323    0.009136
  47 H     1.0000    0     1.008   -4.185283    9.848666   -0.004248
  48 H     1.0000    0     1.008   -0.722206   12.912453   -0.006063
  49 H     1.0000    0     1.008    3.747554   11.434343    0.000446

--------------------------------
INTERNAL COORDINATES (ANGSTROEM)
--------------------------------
 C      0   0   0     0.000000000000     0.00000000     0.00000000
 C      1   0   0     1.428778196924     0.00000000     0.00000000
 C      2   1   0     1.404865539211   119.96802882     0.00000000
 C      3   2   1     1.428905691799   119.97310266     0.02696069
 C      4   3   2     1.411467627344   120.22056305   359.93848641
 C      1   2   3     1.411558923007   120.22002671     0.04299126
 C      1   2   3     1.439274922597   120.04185125   180.07316975
 C      7   1   2     1.419462412954   120.93780044     0.00000000
 C      8   7   1     1.467379219792   119.12943757   359.85725044
 C      9   8   7     1.421424669086   119.78505961     0.16443001
 C     10   9   8     1.417714266964   119.65665905   179.97116284
 C     11  10   9     1.463150801673   119.73143153   180.01311860
 C     12  11  10     1.417815835746   119.73058514     0.04691816
 C     13  12  11     1.421441901453   119.66489999   179.94297603
 C     14  13  12     1.467428199599   119.79912800   180.05684021
 C     15  14  13     1.419375503524   119.12466986   359.82511183
 C      6   1   2     1.435030760912   118.73907979   179.94580601
 C     17   6   1     1.353761951836   121.74147430     0.08682337
 C      7   1   2     1.420699688758   119.83880768   179.97528017
 C      9   8   7     1.395376253740   121.14221526   180.19272777
 C     20   9   8     1.387130834281   121.10075195   180.03020615
 C     21  20   9     1.383002071984   120.05174543     0.00000000
 C     12  11  10     1.400507579741   121.25345593   180.05082208
 C     23  12  11     1.383018831704   121.09110441   180.00742428
 C     24  23  12     1.387109920059   120.05663599     0.02329989
 C     19   7   1     1.403510240588   120.11871079   180.08282653
 C     26  19   7     1.380182384539   120.17652190     0.02977786
 C      8   7   1     1.394481785779   118.74859022   179.86084103
 C     16  15  14     1.420781000549   119.22421556   180.08454824
 C     29  16  15     1.429552102317   118.87557366   179.96515991
 C     30  29  16     1.353778457051   121.06449248     0.03690025
 C     15  14  13     1.394604489292   122.13538971   179.82664668
 C     32  15  14     1.394612375568   121.69769892   179.93740261
 C     33  32  15     1.380205193533   120.04623582     0.00000000
 H     17   6   1     1.087355984444   119.71364827   180.09158527
 H     18  17   6     1.092036131247   120.42395697   179.98701230
 H     20   9   8     1.088091797872   120.28764109     0.05138465
 H     21  20   9     1.091596432619   119.97074284   179.99325773
 H     22  21  20     1.087669662460   118.54390744   179.97701563
 H     23  12  11     1.087728913088   120.40356867     0.02860399
 H     24  23  12     1.091552641889   120.01468703   180.02640685
 H     25  24  23     1.088093697575   118.59108299   180.02111199
 H     26  19   7     1.092052040670   119.06529511   180.00861392
 H     27  26  19     1.091674786085   120.34250026   179.94949533
 H     28   8   7     1.088355286153   120.15631227   180.10170610
 H     30  29  16     1.092077560592   118.52443917   180.02815561
 H     31  30  29     1.087311308378   118.59036283   179.98572727
 H     32  15  14     1.088267747266   120.17325599   359.92049687
 H     33  32  15     1.091669122457   119.59332703   180.00144934
 H     34  33  32     1.092157357522   120.80380821   180.01895551

---------------------------
INTERNAL COORDINATES (A.U.)
---------------------------
 C      0   0   0     0.000000000000     0.00000000     0.00000000
 C      1   0   0     2.699999498305     0.00000000     0.00000000
 C      2   1   0     2.654811124092   119.96802882     0.00000000
 C      3   2   1     2.700240428702   119.97310266     0.02696069
 C      4   3   2     2.667287262576   120.22056305   359.93848641
 C      1   2   3     2.667459786376   120.22002671     0.04299126
 C      1   2   3     2.719835435130   120.04185125   180.07316975
 C      7   1   2     2.682395217877   120.93780044     0.00000000
 C      8   7   1     2.772944860014   119.12943757   359.85725044
 C      9   8   7     2.686103344572   119.78505961     0.16443001
 C     10   9   8     2.679091700715   119.65665905   179.97116284
 C     11  10   9     2.764954307788   119.73143153   180.01311860
 C     12  11  10     2.679283637896   119.73058514     0.04691816
 C     13  12  11     2.686135909026   119.66489999   179.94297603
 C     14  13  12     2.773037418435   119.79912800   180.05684021
 C     15  14  13     2.682230982856   119.12466986   359.82511183
 C      6   1   2     2.711815131877   118.73907979   179.94580601
 C     17   6   1     2.558239339493   121.74147430     0.08682337
 C      7   1   2     2.684733330300   119.83880768   179.97528017
 C      9   8   7     2.636878973346   121.14221526   180.19272777
 C     20   9   8     2.621297388709   121.10075195   180.03020615
 C     21  20   9     2.613495158695   120.05174543     0.00000000
 C     12  11  10     2.646575774192   121.25345593   180.05082208
 C     23  12  11     2.613526829976   121.09110441   180.00742428
 C     24  23  12     2.621257866557   120.05663599     0.02329989
 C     19   7   1     2.652249980864   120.11871079   180.08282653
 C     26  19   7     2.608166721641   120.17652190     0.02977786
 C      8   7   1     2.635188673864   118.74859022   179.86084103
 C     16  15  14     2.684886987316   119.22421556   180.08454824
 C     29  16  15     2.701461967550   118.87557366   179.96515991
 C     30  29  16     2.558270529830   121.06449248     0.03690025
 C     15  14  13     2.635420549899   122.13538971   179.82664668
 C     32  15  14     2.635435452802   121.69769892   179.93740261
 C     33  32  15     2.608209824393   120.04623582     0.00000000
 H     17   6   1     2.054805020679   119.71364827   180.09158527
 H     18  17   6     2.063649216403   120.42395697   179.98701230
 H     20   9   8     2.056195506544   120.28764109     0.05138465
 H     21  20   9     2.062818306415   119.97074284   179.99325773
 H     22  21  20     2.055397786225   118.54390744   179.97701563
 H     23  12  11     2.055509753684   120.40356867     0.02860399
 H     24  23  12     2.062735553928   120.01468703   180.02640685
 H     25  24  23     2.056199096463   118.59108299   180.02111199
 H     26  19   7     2.063679280855   119.06529511   180.00861392
 H     27  26  19     2.062966373008   120.34250026   179.94949533
 H     28   8   7     2.056693427235   120.15631227   180.10170610
 H     30  29  16     2.063727506519   118.52443917   180.02815561
 H     31  30  29     2.054720595150   118.59036283   179.98572727
 H     32  15  14     2.056528002712   120.17325599   359.92049687
 H     33  32  15     2.062955670302   119.59332703   180.00144934
 H     34  33  32     2.063878300863   120.80380821   180.01895551

---------------------
BASIS SET INFORMATION
---------------------
There are 2 groups of distinct atoms

 Group   1 Type C   : 15s8p3d2f1g contracted to 7s4p3d2f1g pattern {8211111/5111/111/11/1}
 Group   2 Type H   : 7s3p2d1f contracted to 4s3p2d1f pattern {4111/111/11/1}

Atom   0C    basis set group =>   1
Atom   1C    basis set group =>   1
Atom   2C    basis set group =>   1
Atom   3C    basis set group =>   1
Atom   4C    basis set group =>   1
Atom   5C    basis set group =>   1
Atom   6C    basis set group =>   1
Atom   7C    basis set group =>   1
Atom   8C    basis set group =>   1
Atom   9C    basis set group =>   1
Atom  10C    basis set group =>   1
Atom  11C    basis set group =>   1
Atom  12C    basis set group =>   1
Atom  13C    basis set group =>   1
Atom  14C    basis set group =>   1
Atom  15C    basis set group =>   1
Atom  16C    basis set group =>   1
Atom  17C    basis set group =>   1
Atom  18C    basis set group =>   1
Atom  19C    basis set group =>   1
Atom  20C    basis set group =>   1
Atom  21C    basis set group =>   1
Atom  22C    basis set group =>   1
Atom  23C    basis set group =>   1
Atom  24C    basis set group =>   1
Atom  25C    basis set group =>   1
Atom  26C    basis set group =>   1
Atom  27C    basis set group =>   1
Atom  28C    basis set group =>   1
Atom  29C    basis set group =>   1
Atom  30C    basis set group =>   1
Atom  31C    basis set group =>   1
Atom  32C    basis set group =>   1
Atom  33C    basis set group =>   1
Atom  34H    basis set group =>   2
Atom  35H    basis set group =>   2
Atom  36H    basis set group =>   2
Atom  37H    basis set group =>   2
Atom  38H    basis set group =>   2
Atom  39H    basis set group =>   2
Atom  40H    basis set group =>   2
Atom  41H    basis set group =>   2
Atom  42H    basis set group =>   2
Atom  43H    basis set group =>   2
Atom  44H    basis set group =>   2
Atom  45H    basis set group =>   2
Atom  46H    basis set group =>   2
Atom  47H    basis set group =>   2
Atom  48H    basis set group =>   2
Atom  49H    basis set group =>   2
---------------------------------
AUXILIARY/C BASIS SET INFORMATION
---------------------------------
There are 2 groups of distinct atoms

 Group   1 Type C   : 9s8p7d5f3g1h contracted to 9s8p7d5f3g1h pattern {111111111/11111111/1111111/11111/111/1}
 Group   2 Type H   : 6s4p3d2f1g contracted to 6s4p3d2f1g pattern {111111/1111/111/11/1}

Atom   0C    basis set group =>   1
Atom   1C    basis set group =>   1
Atom   2C    basis set group =>   1
Atom   3C    basis set group =>   1
Atom   4C    basis set group =>   1
Atom   5C    basis set group =>   1
Atom   6C    basis set group =>   1
Atom   7C    basis set group =>   1
Atom   8C    basis set group =>   1
Atom   9C    basis set group =>   1
Atom  10C    basis set group =>   1
Atom  11C    basis set group =>   1
Atom  12C    basis set group =>   1
Atom  13C    basis set group =>   1
Atom  14C    basis set group =>   1
Atom  15C    basis set group =>   1
Atom  16C    basis set group =>   1
Atom  17C    basis set group =>   1
Atom  18C    basis set group =>   1
Atom  19C    basis set group =>   1
Atom  20C    basis set group =>   1
Atom  21C    basis set group =>   1
Atom  22C    basis set group =>   1
Atom  23C    basis set group =>   1
Atom  24C    basis set group =>   1
Atom  25C    basis set group =>   1
Atom  26C    basis set group =>   1
Atom  27C    basis set group =>   1
Atom  28C    basis set group =>   1
Atom  29C    basis set group =>   1
Atom  30C    basis set group =>   1
Atom  31C    basis set group =>   1
Atom  32C    basis set group =>   1
Atom  33C    basis set group =>   1
Atom  34H    basis set group =>   2
Atom  35H    basis set group =>   2
Atom  36H    basis set group =>   2
Atom  37H    basis set group =>   2
Atom  38H    basis set group =>   2
Atom  39H    basis set group =>   2
Atom  40H    basis set group =>   2
Atom  41H    basis set group =>   2
Atom  42H    basis set group =>   2
Atom  43H    basis set group =>   2
Atom  44H    basis set group =>   2
Atom  45H    basis set group =>   2
Atom  46H    basis set group =>   2
Atom  47H    basis set group =>   2
Atom  48H    basis set group =>   2
Atom  49H    basis set group =>   2
----------------------------------
AUXILIARY/JK BASIS SET INFORMATION
----------------------------------
There are 2 groups of distinct atoms

 Group   1 Type C   : 9s8p7d5f3g1h contracted to 9s8p7d5f3g1h pattern {111111111/11111111/1111111/11111/111/1}
 Group   2 Type H   : 6s4p3d2f1g contracted to 6s4p3d2f1g pattern {111111/1111/111/11/1}

Atom   0C    basis set group =>   1
Atom   1C    basis set group =>   1
Atom   2C    basis set group =>   1
Atom   3C    basis set group =>   1
Atom   4C    basis set group =>   1
Atom   5C    basis set group =>   1
Atom   6C    basis set group =>   1
Atom   7C    basis set group =>   1
Atom   8C    basis set group =>   1
Atom   9C    basis set group =>   1
Atom  10C    basis set group =>   1
Atom  11C    basis set group =>   1
Atom  12C    basis set group =>   1
Atom  13C    basis set group =>   1
Atom  14C    basis set group =>   1
Atom  15C    basis set group =>   1
Atom  16C    basis set group =>   1
Atom  17C    basis set group =>   1
Atom  18C    basis set group =>   1
Atom  19C    basis set group =>   1
Atom  20C    basis set group =>   1
Atom  21C    basis set group =>   1
Atom  22C    basis set group =>   1
Atom  23C    basis set group =>   1
Atom  24C    basis set group =>   1
Atom  25C    basis set group =>   1
Atom  26C    basis set group =>   1
Atom  27C    basis set group =>   1
Atom  28C    basis set group =>   1
Atom  29C    basis set group =>   1
Atom  30C    basis set group =>   1
Atom  31C    basis set group =>   1
Atom  32C    basis set group =>   1
Atom  33C    basis set group =>   1
Atom  34H    basis set group =>   2
Atom  35H    basis set group =>   2
Atom  36H    basis set group =>   2
Atom  37H    basis set group =>   2
Atom  38H    basis set group =>   2
Atom  39H    basis set group =>   2
Atom  40H    basis set group =>   2
Atom  41H    basis set group =>   2
Atom  42H    basis set group =>   2
Atom  43H    basis set group =>   2
Atom  44H    basis set group =>   2
Atom  45H    basis set group =>   2
Atom  46H    basis set group =>   2
Atom  47H    basis set group =>   2
Atom  48H    basis set group =>   2
Atom  49H    basis set group =>   2


           ************************************************************
           *        Program running with 104 parallel MPI-processes   *
           *              working on a common directory               *
           ************************************************************
------------------------------------------------------------------------------
                             ORCA STARTUP CALCULATIONS
                           -- RI-GTO INTEGRALS CHOSEN --
------------------------------------------------------------------------------
------------------------------------------------------------------------------
                   ___                                                        
                  /   \      - P O W E R E D   B Y -                         
                 /     \                                                     
                 |  |  |   _    _      __       _____    __    __             
                 |  |  |  | |  | |    /  \     |  _  \  |  |  /  |          
                  \  \/   | |  | |   /    \    | | | |  |  | /  /          
                 / \  \   | |__| |  /  /\  \   | |_| |  |  |/  /          
                |  |  |   |  __  | /  /__\  \  |    /   |      \           
                |  |  |   | |  | | |   __   |  |    \   |  |\   \          
                \     /   | |  | | |  |  |  |  | |\  \  |  | \   \       
                 \___/    |_|  |_| |__|  |__|  |_| \__\ |__|  \__/        
                                                                              
                      - O R C A' S   B I G   F R I E N D -                    
                                      &                                       
                       - I N T E G R A L  F E E D E R -                       
                                                                              
 v1 FN, 2020, v2 2021, v3 2022-2024                                           
------------------------------------------------------------------------------


----------------------
SHARK INTEGRAL PACKAGE
----------------------

Number of atoms                             ...     50
Number of basis functions                   ...   2418
Number of shells                            ...    738
Maximum angular momentum                    ...      4
Integral batch strategy                     ... SHARK/LIBINT Hybrid
RI-J (if used) integral strategy            ... SPLIT-RIJ (Revised 2003 algorithm where possible)
Printlevel                                  ...      1
Contraction scheme used                     ... SEGMENTED contraction
Prescreening option                         ... SCHWARTZ
   Thresh                                   ... 1.000e-10
   Tcut                                     ... 1.000e-11
   Tpresel                                  ... 1.000e-11 
Coulomb Range Separation                    ... NOT USED
Exchange Range Separation                   ... NOT USED
Multipole approximations                    ... NOT USED
Finite Nucleus Model                        ... NOT USED
CABS basis                                  ... NOT available
Auxiliary Coulomb fitting basis             ... NOT available
Auxiliary J/K fitting basis                 ... AVAILABLE
   # of basis functions in Aux-JK           ...   5690
   # of shells in Aux-JK                    ...   1378
   Maximum angular momentum in Aux-JK       ...      5
Auxiliary Correlation fitting basis         ... AVAILABLE
   # of basis functions in Aux-C            ...   5690
   # of shells in Aux-C                     ...   1378
   Maximum angular momentum in Aux-C        ...      5
Auxiliary 'external' fitting basis          ... NOT available

Checking pre-screening integrals            ... done (  0.1 sec) Dimension = 738
Check shell pair data                       ... done (  0.0 sec)
Shell pair information
Shell pair cut-off parameter TPreSel        ...   1.0e-11
Total number of shell pairs                 ...    272691
Shell pairs after pre-screening             ...    145222
Total number of primitive shell pairs       ...    714837
Primitive shell pairs kept                  ...    254729
          la=0 lb=0:  21620 shell pairs
          la=1 lb=0:  33207 shell pairs
          la=1 lb=1:  11720 shell pairs
          la=2 lb=0:  19371 shell pairs
          la=2 lb=1:  15003 shell pairs
          la=2 lb=2:   4643 shell pairs
          la=3 lb=0:  11622 shell pairs
          la=3 lb=1:   8951 shell pairs
          la=3 lb=2:   5306 shell pairs
          la=3 lb=3:   1606 shell pairs
          la=4 lb=0:   4720 shell pairs
          la=4 lb=1:   3720 shell pairs
          la=4 lb=2:   2170 shell pairs
          la=4 lb=3:   1276 shell pairs
          la=4 lb=4:    287 shell pairs

Calculating one electron integrals          ... done (  1.0 sec)
Calculating RI/JK V-Matrix + Cholesky decomp... done (  1.9 sec)
Calculating RI/C V-Matrix + Cholesky decomp.... done (  1.8 sec)
Calculating Nuclear repulsion               ... done (  0.0 sec) ENN=   3138.030102667158 Eh

Diagonalization of the overlap matrix:
Smallest eigenvalue                        ... 3.123e-08
Time for diagonalization                   ...    0.920 sec
Threshold for overlap eigenvalues          ... 1.000e-07
Number of eigenvalues below threshold      ... 3
Smallest eigenvalue above threshold        ... 1.102e-07

IMPORTANT:
Smallest eigenvalue of S below the DiffSThresh (1.000e-06) while
Thresh>1e-12 and/or TCut>1e-13! In order to avoid SCF convergence issues,
Thresh will be set to at least 1e-12 and TCut to at least 1e-13.
This can be turned off by adding %SCF DiffSThresh -1 END to the input.

Time for construction of square roots      ...    0.718 sec
Total time needed                          ...    1.707 sec

-------------------
DFT GRID GENERATION
-------------------

General Integration Accuracy     IntAcc      ... 4.959
Radial Grid Type                 RadialGrid  ... OptM3 with GC (2021)
Angular Grid (max. ang.)         AngularGrid ... 6 (Lebedev-590)
Angular grid pruning method      GridPruning ... 4 (adaptive)
Weight generation scheme         WeightScheme... mBecke (2022)
Basis function cutoff            BFCut       ... 1.0000e-10
Integration weight cutoff        WCut        ... 1.0000e-14
Partially contracted basis set               ... off
Rotationally invariant grid construction     ... off
Angular grids for H and He will be reduced by one unit
Diffuse basis detected: some atoms will have their outermost
                        angular grid increased by 1.

Total number of grid points                  ...   626016
Total number of batches                      ...     9802
Average number of points per batch           ...       63
Average number of grid points per atom       ...    12520
Initializing property integral containers    ... done (  0.1 sec)

SHARK setup successfully completed in  16.0 seconds

Maximum memory used throughout the entire STARTUP-calculation: 289.5 MB


           ************************************************************
           *        Program running with 104 parallel MPI-processes   *
           *              working on a common directory               *
           ************************************************************
-------------------------------------------------------------------------------
                                 ORCA GUESS
                   Start orbitals & Density for SCF / CASSCF
-------------------------------------------------------------------------------

------------
SCF SETTINGS
------------
Hamiltonian:
 Density Functional     Method          .... DFT(GTOs)
 Exchange Functional    Exchange        .... PBE
   PBE kappa parameter   XKappa         ....  0.804000
   PBE mue parameter    XMuePBE         ....  0.219520
 Correlation Functional Correlation     .... P86
 LDA part of GGA corr.  LDAOpt          .... VWN-5
 Gradients option       PostSCFGGA      .... off
 Hybrid DFT is turned on
   Fraction HF Exchange ScalHFX         ....  0.690000
   Scaling of DF-GGA-X  ScalDFX         ....  0.310000
   Scaling of DF-GGA-C  ScalDFC         ....  0.403800
   Scaling of DF-LDA-C  ScalLDAC        ....  0.403800
   Perturbative correction              ....  1.000000
 RI-approximation to the Coulomb term is turned on
   Number of AuxJK basis functions      .... 5690
   RI-JK (J+K treated both via RI)      .... on


General Settings:
 Integral files         IntName         .... compas3D_hc_c34h16_0pent_1_qz_riri
 Hartree-Fock type      HFTyp           .... RHF
 Total Charge           Charge          ....    0
 Multiplicity           Mult            ....    1
 Number of Electrons    NEL             ....  220
 Basis Dimension        Dim             .... 2418
 Nuclear Repulsion      ENuc            ....   3138.0301026672 Eh

Convergence Acceleration:
 AO-DIIS                CNVDIIS         .... on
   Start iteration      DIISMaxIt       ....    12
   Startup error        DIISStart       ....  0.200000
   # of expansion vecs  DIISMaxEq       ....     5
   Bias factor          DIISBfac        ....   1.050
   Max. coefficient     DIISMaxC        ....  10.000
 MO-DIIS                CNVKDIIS        .... off
 Trust-Rad. Augm. Hess. CNVTRAH         .... auto
   Auto Start mean grad. ratio tolernc. ....  1.125000
   Auto Start start iteration           ....    50
   Auto Start num. interpolation iter.  ....    10
   Max. Number of Micro iterations      ....    24
   Max. Number of Macro iterations      .... Maxiter - #DIIS iter
   Number of Davidson start vectors     ....     2
   Converg. threshold    (grad. norm)   ....   5.000e-05
   Grad. Scal. Fac. for Micro threshold ....   0.100
   Minimum threshold for Micro iter.    ....   1.000e-02
   NR start threshold (gradient norm)   ....   1.000e-04
   Initial trust radius                 ....   0.400
   Minimum AH scaling param. (alpha)    ....   1.000
   Maximum AH scaling param. (alpha)    .... 1000.000
   Quad. conv. algorithm                .... NR
   White noise on init. David. guess    .... on
   Maximum white noise                  ....   0.010
   Pseudo random numbers                .... off
   Inactive MOs                         .... canonical
   Orbital update algorithm             .... Taylor
   Preconditioner                       .... Diag
   Full preconditioner red. dimension   ....   250
 SOSCF                  CNVSOSCF        .... on
   Start iteration      SOSCFMaxIt      ....   150
   Startup grad/error   SOSCFStart      ....  0.003300
   Hessian update       SOSCFHessUp     .... L-BFGS
 Level Shifting         CNVShift        .... on
   Level shift para.    LevelShift      ....    0.2500
   Turn off err/grad.   ShiftErr        ....    0.0010
 Zerner damping         CNVZerner       .... off
 Static damping         CNVDamp         .... on
   Fraction old density DampFac         ....    0.7000
   Max. Damping (<1)    DampMax         ....    0.9800
   Min. Damping (>=0)   DampMin         ....    0.0000
   Turn off err/grad.   DampErr         ....    0.1000

SCF Procedure:
 Maximum # iterations   MaxIter         ....   125
 SCF integral mode      SCFMode         .... Direct
   Integral package                     .... SHARK and LIBINT hybrid scheme
 Reset frequency        DirectResetFreq ....    20
 Integral Threshold     Thresh          ....  1.000e-12 Eh
 Primitive CutOff       TCut            ....  1.000e-13 Eh

Convergence Tolerance:
 Convergence Check Mode ConvCheckMode   .... Total+1el-Energy
 Convergence forced     ConvForced      .... 0
 Energy Change          TolE            ....  1.000e-06 Eh
 1-El. energy change                    ....  1.000e-03 Eh
 Orbital Gradient       TolG            ....  5.000e-05
 Orbital Rotation angle TolX            ....  5.000e-05
 DIIS Error             TolErr          ....  1.000e-06

------------------------------
INITIAL GUESS: MODEL POTENTIAL
------------------------------
Loading Hartree-Fock densities                     ... done
Calculating cut-offs                               ... done
Initializing the effective Hamiltonian             ... done
Setting up the integral package (SHARK)            ... done
Starting the Coulomb interaction                   ... done (   0.7 sec)
Making the grid                                    ... done (   0.5 sec)
Mapping shells                                     ... done
Starting the XC term evaluation                    ... done (   0.2 sec)
  promolecular density results
     # of electrons  =    220.021391613
     EX              =   -178.820716369
     EC              =      0.265761847
     EX+EC           =   -178.554954523
Transforming the Hamiltonian                       ... done (   0.5 sec)
Diagonalizing the Hamiltonian                      ... done (   0.6 sec)
Back transforming the eigenvectors                 ... done (   0.3 sec)
Now organizing SCF variables                       ... done
                      ------------------
                      INITIAL GUESS DONE (   3.6 sec)
                      ------------------
             **** ENERGY FILE WAS UPDATED (compas3D_hc_c34h16_0pent_1_qz_riri.en.tmp) ****
Finished Guess after  21.6 sec
Maximum memory used throughout the entire GUESS-calculation: 324.6 MB


           ************************************************************
           *        Program running with 104 parallel MPI-processes   *
           *              working on a common directory               *
           ************************************************************

-------------------------------------------------------------------------------------------
                                      ORCA LEAN-SCF
                              memory conserving SCF solver
-------------------------------------------------------------------------------------------


Warning (ORCA_SCF): Not enough memory available!
                    Memory available for SCF calculation:       1024.0 MB
                    Memory needed (estimated)           :       1035.4 MB


----------------------------------------D-I-I-S--------------------------------------------
Iteration    Energy (Eh)           Delta-E    RMSDP     MaxDP     DIISErr   Damp  Time(sec)
-------------------------------------------------------------------------------------------
    1    -1299.8501679863788922     0.00e+00  2.87e-04  3.51e-02  1.48e-01  0.700  35.3
    2    -1299.6379301333467993     2.12e-01  2.30e-04  1.90e-02  1.32e-01  0.700  37.1
                               ***Turning on AO-DIIS***
    3    -1299.7766315403791850    -1.39e-01  1.78e-04  1.62e-02  7.70e-02  0.700  34.7
    4    -1300.0426480592591361    -2.66e-01  4.57e-04  5.46e-02  4.07e-02  0.000 112.7
    5    -1300.4778169987434921    -4.35e-01  8.71e-05  1.13e-02  3.24e-02  0.000  34.7
    6    -1300.4962912673022402    -1.85e-02  5.17e-05  6.31e-03  1.59e-02  0.000  35.5
    7    -1300.5007032252128738    -4.41e-03  1.93e-05  2.60e-03  4.77e-03  0.000 118.0
                              *** Initializing SOSCF ***
---------------------------------------S-O-S-C-F--------------------------------------
Iteration    Energy (Eh)           Delta-E    RMSDP     MaxDP     MaxGrad    Time(sec)
--------------------------------------------------------------------------------------
    8    -1300.5012364456965770    -5.33e-04  6.39e-06  5.58e-04  1.24e-03    38.0
    9    -1300.5012785897820322    -4.21e-05  4.50e-06  3.92e-04  1.88e-04    35.4
   10    -1300.5012837589051742    -5.17e-06  2.64e-06  2.17e-04  7.66e-05    32.5
   11    -1300.5012845209726038    -7.62e-07  9.46e-07  7.54e-05  7.53e-05    32.7
                 **** Energy Check signals convergence ****

               *****************************************************
               *                     SUCCESS                       *
               *           SCF CONVERGED AFTER  11 CYCLES          *
               *****************************************************

             **** ENERGY FILE WAS UPDATED (compas3D_hc_c34h16_0pent_1_qz_riri.en.tmp) ****

----------------
TOTAL SCF ENERGY
----------------

Total Energy       :      -1300.50128452097260 Eh          -35388.43907 eV

Components:
Nuclear Repulsion  :       3138.03010266715819 Eh           85390.14024 eV
Electronic Energy  :      -4438.53138718812988 Eh         -120778.57931 eV
One Electron Energy:      -8002.60633618426800 Eh         -217761.98921 eV
Two Electron Energy:       3564.07494899613766 Eh           96983.40990 eV

Virial components:
Potential Energy   :      -2597.17975114211640 Eh          -70672.85397 eV
Kinetic Energy     :       1296.67846662114380 Eh           35284.41490 eV
Virial Ratio       :          2.00294816178277

DFT components:
N(Alpha)           :      109.999991456570 electrons
N(Beta)            :      109.999991456570 electrons
N(Total)           :      219.999982913141 electrons
E(X)               :      -56.305257252385 Eh       
E(C)               :       -3.298800883233 Eh       
E(XC)              :      -59.604058135618 Eh       

---------------
SCF CONVERGENCE
---------------

  Last Energy change         ...    7.6207e-07  Tolerance :   1.0000e-06
  Last MAX-Density change    ...    7.5444e-05  Tolerance :   1.0000e-05
  Last RMS-Density change    ...    9.4566e-07  Tolerance :   1.0000e-06
  Last DIIS Error            ...    1.2373e-03  Tolerance :   1.0000e-06
  Last Orbital Gradient      ...    7.5276e-05  Tolerance :   5.0000e-05
  Last Orbital Rotation      ...    1.6453e-04  Tolerance :   5.0000e-05


----------------
ORBITAL ENERGIES
----------------

  NO   OCC          E(Eh)            E(eV) 
   0   2.0000     -10.840871      -294.9951 
   1   2.0000     -10.840569      -294.9869 
   2   2.0000     -10.840408      -294.9825 
   3   2.0000     -10.840066      -294.9732 
   4   2.0000     -10.840005      -294.9715 
   5   2.0000     -10.839769      -294.9651 
   6   2.0000     -10.839613      -294.9609 
   7   2.0000     -10.839420      -294.9556 
   8   2.0000     -10.839409      -294.9553 
   9   2.0000     -10.839202      -294.9497 
  10   2.0000     -10.839137      -294.9479 
  11   2.0000     -10.838913      -294.9418 
  12   2.0000     -10.838614      -294.9337 
  13   2.0000     -10.838021      -294.9176 
  14   2.0000     -10.837478      -294.9028 
  15   2.0000     -10.837464      -294.9024 
  16   2.0000     -10.834895      -294.8325 
  17   2.0000     -10.834875      -294.8319 
  18   2.0000     -10.827290      -294.6255 
  19   2.0000     -10.827283      -294.6254 
  20   2.0000     -10.827143      -294.6215 
  21   2.0000     -10.827118      -294.6209 
  22   2.0000     -10.826488      -294.6037 
  23   2.0000     -10.826471      -294.6033 
  24   2.0000     -10.825940      -294.5888 
  25   2.0000     -10.825936      -294.5887 
  26   2.0000     -10.825746      -294.5835 
  27   2.0000     -10.825717      -294.5827 
  28   2.0000     -10.825369      -294.5733 
  29   2.0000     -10.825340      -294.5725 
  30   2.0000     -10.824936      -294.5615 
  31   2.0000     -10.824929      -294.5613 
  32   2.0000     -10.824580      -294.5518 
  33   2.0000     -10.824571      -294.5516 
  34   2.0000      -1.106051       -30.0972 
  35   2.0000      -1.081083       -29.4178 
  36   2.0000      -1.069046       -29.0902 
  37   2.0000      -1.042894       -28.3786 
  38   2.0000      -1.042442       -28.3663 
  39   2.0000      -1.006207       -27.3803 
  40   2.0000      -1.000841       -27.2343 
  41   2.0000      -0.980721       -26.6868 
  42   2.0000      -0.977983       -26.6123 
  43   2.0000      -0.945166       -25.7193 
  44   2.0000      -0.926806       -25.2197 
  45   2.0000      -0.922159       -25.0932 
  46   2.0000      -0.921070       -25.0636 
  47   2.0000      -0.910295       -24.7704 
  48   2.0000      -0.896479       -24.3944 
  49   2.0000      -0.870540       -23.6886 
  50   2.0000      -0.864243       -23.5172 
  51   2.0000      -0.798815       -21.7369 
  52   2.0000      -0.792400       -21.5623 
  53   2.0000      -0.787535       -21.4299 
  54   2.0000      -0.786290       -21.3961 
  55   2.0000      -0.770903       -20.9773 
  56   2.0000      -0.751526       -20.4501 
  57   2.0000      -0.749342       -20.3906 
  58   2.0000      -0.722495       -19.6601 
  59   2.0000      -0.702628       -19.1195 
  60   2.0000      -0.691621       -18.8200 
  61   2.0000      -0.670189       -18.2368 
  62   2.0000      -0.657035       -17.8788 
  63   2.0000      -0.651615       -17.7314 
  64   2.0000      -0.645611       -17.5680 
  65   2.0000      -0.629022       -17.1165 
  66   2.0000      -0.610119       -16.6022 
  67   2.0000      -0.606627       -16.5072 
  68   2.0000      -0.598074       -16.2744 
  69   2.0000      -0.592811       -16.1312 
  70   2.0000      -0.586403       -15.9568 
  71   2.0000      -0.572710       -15.5842 
  72   2.0000      -0.562844       -15.3158 
  73   2.0000      -0.549213       -14.9448 
  74   2.0000      -0.544203       -14.8085 
  75   2.0000      -0.542181       -14.7535 
  76   2.0000      -0.535460       -14.5706 
  77   2.0000      -0.533347       -14.5131 
  78   2.0000      -0.532764       -14.4973 
  79   2.0000      -0.525414       -14.2972 
  80   2.0000      -0.517612       -14.0849 
  81   2.0000      -0.511349       -13.9145 
  82   2.0000      -0.511146       -13.9090 
  83   2.0000      -0.505835       -13.7645 
  84   2.0000      -0.501945       -13.6586 
  85   2.0000      -0.487818       -13.2742 
  86   2.0000      -0.479990       -13.0612 
  87   2.0000      -0.474841       -12.9211 
  88   2.0000      -0.473124       -12.8744 
  89   2.0000      -0.464459       -12.6386 
  90   2.0000      -0.458203       -12.4683 
  91   2.0000      -0.454941       -12.3796 
  92   2.0000      -0.453982       -12.3535 
  93   2.0000      -0.450837       -12.2679 
  94   2.0000      -0.434773       -11.8308 
  95   2.0000      -0.429749       -11.6941 
  96   2.0000      -0.411441       -11.1959 
  97   2.0000      -0.405893       -11.0449 
  98   2.0000      -0.401719       -10.9313 
  99   2.0000      -0.399242       -10.8639 
 100   2.0000      -0.379751       -10.3336 
 101   2.0000      -0.376090       -10.2339 
 102   2.0000      -0.333539        -9.0760 
 103   2.0000      -0.315185        -8.5766 
 104   2.0000      -0.311291        -8.4707 
 105   2.0000      -0.310290        -8.4434 
 106   2.0000      -0.304040        -8.2733 
 107   2.0000      -0.280099        -7.6219 
 108   2.0000      -0.244238        -6.6460 
 109   2.0000      -0.227946        -6.2027 
 110   0.0000      -0.010683        -0.2907 
 111   0.0000      -0.001789        -0.0487 
 112   0.0000       0.024715         0.6725 
 113   0.0000       0.041447         1.1278 
 114   0.0000       0.055017         1.4971 
 115   0.0000       0.058874         1.6020 
 116   0.0000       0.068474         1.8633 
 117   0.0000       0.073018         1.9869 
 118   0.0000       0.076837         2.0908 
 119   0.0000       0.077601         2.1116 
 120   0.0000       0.085533         2.3275 
*Only the first 10 virtual orbitals were printed.
-------
TIMINGS
-------

Total SCF time: 0 days 0 hours 9 min 26 sec 

Total time                  ....     566.633 sec
Sum of individual times     ....     566.602 sec  (100.0%)

SCF preparation             ....      17.401 sec  (  3.1%)
Fock matrix formation       ....     506.741 sec  ( 89.4%)
  Startup                   ....       3.479 sec  (  0.7% of F)
  RI-JK                     ....     316.930 sec  ( 62.5% of F)
  XC integration            ....     178.259 sec  ( 35.2% of F)
    XC Preparation          ....       0.000 sec  (  0.0% of XC)
    Basis function eval.    ....       1.405 sec  (  0.8% of XC)
    Density eval.           ....       3.728 sec  (  2.1% of XC)
    XC-Functional eval.     ....       0.037 sec  (  0.0% of XC)
    XC-Potential eval.      ....       5.365 sec  (  3.0% of XC)
Diagonalization             ....       0.000 sec  (  0.0%)
Density matrix formation    ....       5.812 sec  (  1.0%)
Total Energy calculation    ....       2.854 sec  (  0.5%)
Population analysis         ....       0.000 sec  (  0.0%)
Orbital Transformation      ....       3.940 sec  (  0.7%)
Orbital Orthonormalization  ....       0.000 sec  (  0.0%)
DIIS solution               ....      23.873 sec  (  4.2%)
SOSCF solution              ....       5.720 sec  (  1.0%)
Finished LeanSCF after 567.6 sec

Maximum memory used throughout the entire LEANSCF-calculation: 1077.4 MB


           ************************************************************
           *        Program running with 104 parallel MPI-processes   *
           *              working on a common directory               *
           ************************************************************

------------------------------------------------------------------------------
                                ORCA  MP2 
------------------------------------------------------------------------------


-------------
RI-MP2 ENERGY
-------------
Dimension of the orbital basis            ... 2418
Dimension of the AuxC basis               ... 5690
Memory devoted to MP2                     ... 4096 MB   
Data format for matrix containers         ... DOUBLE
Compression type for matrix containers    ... UNCOMPRESSED
Scaling for aa/bb pairs                   ...   5.710e-02
Scaling for ab pairs                      ...   5.979e-01
Overall scaling of the MP2 energy         ...   1.000e+00

-----------------------
SHARK RI TRANSFORMATION
-----------------------

Number of basis functions                ...   2418
Number of aux functions                  ...   5690
Number of operators                      ...      1
Generation of IJK                        ... NO
Generation of IAK                        ... YES
Generation of ABK                        ... NO
Orbital Range Operator  0:    0- 109 to  110-2417

Aux basis identifier                     ...   AUXC
Contraction scheme used                  ... SEGMENTED
Do orthogonalization                     ... YES
All operator combinations                ... NO
Transpose (ia|K)                         ... NO
Integral generator used                  ... LIBINT
Starting integral generation + trafo... 
Half trafo (segmented) done. Total time = 12.5 sec. integrals=  2.6 sec trafo=  8.9 sec
Integral generation and half transformation done ( 12.5 sec)

Reading or making V^(-1/2)          ... done (  0.6 sec)
Sorting IAK integrals               ... done ( 14.5 sec)

SHARK RI integral transformation done. Total time = 27.8 sec.

Opening buffers                              ... done

Starting loop over batches of integrals:

Operator 0  - window                       ... (  0-109)x(110-2417)
Operator 0  - Memory available             ...  4096 MB
Operator 0  - Memory needed per MO         ... 100.2 MB
Operator 0  - Number of orbitals per batch ... 2
Operator 0  - Number of batches            ... 1

OPERATOR  0   PASS   0:  MOs     0 ...    1 +    2 ...    3 +    4 ...    5 +    6 ...    7
                            +    8 ...    9 +   10 ...   11 +   12 ...   13 +   14 ...   15
                            +   16 ...   17 +   18 ...   19 +   20 ...   21 +   22 ...   23
                            +   24 ...   25 +   26 ...   27 +   28 ...   29 +   30 ...   31
                            +   32 ...   33 +   34 ...   35 +   36 ...   37 +   38 ...   39
                            +   40 ...   41 +   42 ...   43 +   44 ...   45 +   46 ...   47
                            +   48 ...   49 +   50 ...   51 +   52 ...   53 +   54 ...   55
                            +   56 ...   57 +   58 ...   59 +   60 ...   61 +   62 ...   63
                            +   64 ...   65 +   66 ...   67 +   68 ...   69 +   70 ...   71
                            +   72 ...   73 +   74 ...   75 +   76 ...   77 +   78 ...   79
                            +   80 ...   81 +   82 ...   83 +   84 ...   85 +   86 ...   87
                            +   88 ...   89 +   90 ...   91 +   92 ...   93 +   94 ...   95
                            +   96 ...   97 +   98 ...   99 +  100 ...  101 +  102 ...  103
                            +  104 ...  105 +  106 ...  107 +  108 ...  109
  Reading integrals       ... ok
Time spent in pair loops =   247.645 sec

-----------------------------------------------
 RI-MP2 CORRELATION ENERGY:     -3.324116885 Eh
-----------------------------------------------


-------
TIMINGS
-------

Total time                :  364.590 sec
Integral trafo            :   28.089 sec (  7.7%)
I/O of integrals          :    0.236 sec (  0.1%)
K(i,j) operators          :    3.270 sec (  0.9%)
T(i,j) pair energies      :    0.353 sec (  0.1%)
V**(-1/2)                 :   88.853 sec ( 24.4%)


---------------------------------------
MP2 TOTAL ENERGY:    -1303.825401406 Eh
---------------------------------------

Maximum memory used throughout the entire MP2-calculation: 804.9 MB


-------------------------------------------------------------------------------
                          DFT DISPERSION CORRECTION                            
                                                                               
                                DFTD4 V3.4.0                                   
-------------------------------------------------------------------------------
The REV-DSD-PBEP86-2021 functional is recognized
A user input s6-coefficient scaling factor has been recognized
A user input a1-coefficient scaling factor has been recognized
A user input s8-coefficient scaling factor has been recognized
A user input a2-coefficient scaling factor has been recognized
A user input s9-coefficient scaling factor has been recognized
Active option DFTDOPT                   ...         5   

-------------------------   ----------------
Dispersion correction           -0.057665542
-------------------------   ----------------


-------------------------   --------------------
FINAL SINGLE POINT ENERGY     -1303.883066947659
-------------------------   --------------------



           ************************************************************
           *        Program running with 104 parallel MPI-processes   *
           *              working on a common directory               *
           ************************************************************

------------------------------------------------------------------------------
                              ORCA PROPERTY CALCULATIONS
------------------------------------------------------------------------------

GBWName                                 ... compas3D_hc_c34h16_0pent_1_qz_riri.gbw
Number of atoms                         ...     50
Number of basis functions               ...   2418
Max core memory                         ...   1024 MB

Electric properties:
Dipole moment                           ... YES
Quadrupole moment                       ...  NO
Static polarizability (Dipole/Dipole)   ...  NO
Static polarizability (Dipole/Quad.)    ...  NO
Static polarizability (Quad./Quad.)     ...  NO
Static polarizability (Velocity)        ...  NO

Atomic electric properties:
Dipole moment                           ...  NO
Quadrupole moment                       ...  NO
Static polarizability                   ...  NO

Choice of electric origin               ... Center of mass
Position of electric origin             ...     0.025711     0.005780     0.000200

General magnetic properties:
Magnetizability                         ...  NO

EPR properties:
g-Tensor (aka g-matrix)                 ...  NO
Zero-Field splitting spin-orbit         ...  NO
Zero-field splitting spin-spin          ...  NO
Hyperfine couplings                     ...  NO (   0 nuclei)
Quadrupole couplings                    ...  NO (   0 nuclei)
Contact density                         ...  NO (   0 nuclei)

NMR properties:
Chemical shifts                         ...  NO (   0 nuclei)
Spin-rotation constants                 ...  NO (   0 nuclei)
Spin-spin couplings                     ...  NO (   0 nuclei,    0 pairs)

Choice of magnetic origin               ... GIAO
Position of magnetic origin             ...     0.000000     0.000000     0.000000

Properties with geometric perturbations:
SCF Hessian                             ...  NO
IR spectrum                             ...  NO
VCD spectrum                            ...  NO
X-ray spectroscopy properties:
SCF XES/XAS/RIXS spectra                ...  NO


-------------
DIPOLE MOMENT
-------------

Method             : SCF
Type of density    : Electron Density
Multiplicity       :   1
Irrep              :   0
Energy             : -1300.5012845209726038 Eh
Relativity type    : 
Basis              : AO
                                X                 Y                 Z
Electronic contribution:      0.659306812       0.143722636       0.006227909
Nuclear contribution   :     -0.695665656      -0.151513520      -0.006456725
                        -----------------------------------------
Total Dipole Moment    :     -0.036358844      -0.007790883      -0.000228816
                        -----------------------------------------
Magnitude (a.u.)       :      0.037184886
Magnitude (Debye)      :      0.094516470



--------------------
Rotational spectrum 
--------------------
 
Rotational constants in cm-1:             0.006969             0.004020             0.002549 
Rotational constants in MHz :           208.922213           120.515597            76.428469 

Dipole components along the rotational axes: 
x,y,z [a.u.] :     0.000139    -0.037184    -0.000244 
x,y,z [Debye]:     0.000354    -0.094514    -0.000621 

 

Dipole moment calculation done in   0.5 sec 

Maximum memory used throughout the entire PROP-calculation: 370.1 MB

--------------------------------
SUGGESTED CITATIONS FOR THIS RUN
--------------------------------

Below you find a list of papers that are relevant to this ORCA run
We neither can nor want to force you to cite these papers, but we appreciate if you do
You receive ORCA, which is the product of decades of hard work by many enthusiastic individuals, for free
The only thing we kindly ask in return is that you cite our papers,
We deeply appreciate it, if you show your appreciation for ORCA by not just citing the generic ORCA reference.

Please note that relegating all ORCA citations to the supporting information does *not* help us.
SI sections are not indexed - citations you put there will not count into any citation statistics
But we need these citations in order to attract the funding resources that allow us to do what we are doing

Therefore, if you are a happy ORCA user, please consider citing a few of the papers listed below in the main body of your paper

In addition to the list printed below, the program has created the file compas3D_hc_c34h16_0pent_1_qz_riri.bibtex that contains the list in bibtex format
You can import this file easily into all common literature databanks and citation aid programs


List of essential papers. We consider these as the minimum necessary citations

  1. Neese,F.
     Software update: the ORCA program system, version 5.0
     WIRES Comput. Molec. Sci., 2022 12(1)e1606
     doi.org/10.1002/wcms.1606

List of papers to cite with high priority. The work reported in these papers was absolutely
necessary for this run to complete.
Our perspective: the developers of density functionals and basis sets usually get cited in chemistry papers
Good! But without the algorithms to do something with them, the functionals or basis sets would not do anything.
Hence, in our opinion, the algorithm design and method developments papers are equally worthy of getting cited

  1. Neese,F.
     An improvement of the resolution of the identity approximation for the formation of the Coulomb matrix
     J. Comp. Chem., 2003 24(14)1740-1747
     doi.org/10.1002/jcc.10318
  2. Kossmann,S.; Neese,F.
     Comparison of two efficient approximate Hartee-Fock approaches
     Chem. Phys. Lett., 2009 481 240-243
     doi.org/10.1016/j.cplett.2009.09.073
  3. Neese,F.
     The SHARK Integral Generation and Digestion System
     J. Comp. Chem., 2022  1-16
     doi.org/10.1002/jcc.26942
  4. Caldeweyher,E.; Bannwarth,C.; Grimme,S.
     Extension of the D3 dispersion coefficient model
     J. Chem. Phys., 2017 147 034112
     doi.org/10.1063/1.4993215
  5. Caldeweyher,E.; Ehlert,S.; Hansen,A.; Neugebauer,H.; Spicher,S.; Bannwarth,C.; Grimme,S.
     A generally applicable atomic-charge dependent London dispersion correction
     J. Chem. Phys., 2019 150 154122
     doi.org/10.1063/1.5090222
  6. Caldeweyher,E.; Mewes,J.; Ehlert,S.; Grimme,S.
     Extension and evaluation of the D4 London-dispersion model for periodic systems
     Phys. Chem. Chem. Phys., 2020 22(16)8499-8512
     doi.org/10.1039/D0CP00502A
  7. Wittmann,L.; Gordiy,I.; Friede,M.; Helmich-Paris,B.; Grimme,S.; Hansen,A.; Bursch,M.
     Extension of the D3 and D4 London Dispersion Corrections to the full Actinides Series
     Phys. Chem. Chem. Phys., 2024 26(32)21379-21394
     doi.org/https://doi.org/10.1039/D4CP01514B 

List of suggested additional citations. These are papers that are important in the 'surrounding' of 
of this run, or papers that preceded the highly important papers. If you like your results we are grateful for a citation.

  1. Neese,F.
     The ORCA program system
     WIRES Comput. Molec. Sci., 2012 2(1)73-78
     doi.org/10.1002/wcms.81
  2. Neese,F.
     Software update: the ORCA program system, version 4.0
     WIRES Comput. Molec. Sci., 2018 8(1)1-6
     doi.org/10.1002/wcms.1327
  3. Neese,F.; Wennmohs,F.; Becker,U.; Riplinger,C.
     The ORCA quantum chemistry program package
     J. Chem. Phys., 2020 152 Art. No. L224108
     doi.org/10.1063/5.0004608

List of optional additional citations

  1. Neese,F.
     Approximate second-order SCF convergence for spin unrestricted wavefunctions
     Chem. Phys. Lett., 2000 325(1-3)93-98
     doi.org/10.1016/s0009-2614(00)00662-x

Timings for individual modules:

Sum of individual times          ...     1082.071 sec (=  18.035 min)
Startup calculation              ...       32.524 sec (=   0.542 min)   3.0 %
SCF iterations                   ...      591.967 sec (=   9.866 min)  54.7 %
Property calculations            ...       73.141 sec (=   1.219 min)   6.8 %
MP2 module                       ...      384.438 sec (=   6.407 min)  35.5 %
                             ****ORCA TERMINATED NORMALLY****
TOTAL RUN TIME: 0 days 0 hours 18 minutes 32 seconds 204 msec
