
                                 *****************
                                 * O   R   C   A *
                                 *****************

                                            #,                                       
                                            ###                                      
                                            ####                                     
                                            #####                                    
                                            ######                                   
                                           ########,                                 
                                     ,,################,,,,,                         
                               ,,#################################,,                 
                          ,,##########################################,,             
                       ,#########################################, ''#####,          
                    ,#############################################,,   '####,        
                  ,##################################################,,,,####,       
                ,###########''''           ''''###############################       
              ,#####''   ,,,,##########,,,,          '''####'''          '####       
            ,##' ,,,,###########################,,,                        '##       
           ' ,,###''''                  '''############,,,                           
         ,,##''                                '''############,,,,        ,,,,,,###''
      ,#''                                            '''#######################'''  
     '                                                          ''''####''''         
             ,#######,   #######,   ,#######,      ##                                
            ,#'     '#,  ##    ##  ,#'     '#,    #''#        ,####,   ,####,        
            ##       ##  ##   ,#'  ##            #'  '#       #'       #'  '#        
            ##       ##  #######   ##           ,######,      #####,   #    #        
            '#,     ,#'  ##    ##  '#,     ,#' ,#      #,     #,   #   #,  ,#        
             '#######'   ##     ##  '#######'  #'      '#     '####' # '####'        



                #########################################################
                #                        -***-                          #
                #          Department of theory and spectroscopy        #
                #                                                       #
                #                      Frank Neese                      #
                #                                                       #
                #     Directorship, Architecture, Infrastructure        #
                #                    SHARK, DRIVERS                     #
                #        Core code/Algorithms in most modules           #
                #                                                       #
                #        Max Planck Institute fuer Kohlenforschung      #
                #                Kaiser Wilhelm Platz 1                 #
                #                 D-45470 Muelheim/Ruhr                 #
                #                      Germany                          #
                #                                                       #
                #                  All rights reserved                  #
                #                        -***-                          #
                #########################################################


                         Program Version 6.0.1  -  RELEASE   -


 With contributions from (in alphabetic order):
[Max-Planck-Institut fuer Kohlenforschung]                               
  Daniel Aravena         : Magnetic Suceptibility                        
  Michael Atanasov       : Ab Initio Ligand Field Theory (pilot matlab implementation)
  Alexander A. Auer      : GIAO ZORA, VPT2 properties, NMR spectrum      
  Ute Becker             : All parallelization in ORCA, NUMFREQ, NUMCALC 
  Giovanni Bistoni       : ED, misc. LED, open-shell LED, HFLD           
  Martin Brehm           : Molecular dynamics                            
  Dmytro Bykov           : pre 5.0 version of the SCF Hessian            
  Marcos Casanova-Páez   : Triplet and SCS-CIS(D). UHF-(DLPNO)-IP/EA/STEOM-CCSD. UHF-CVS-IP/STEOM-CCSD   
  Vijay G. Chilkuri      : MRCI spin determinant printing, contributions to CSF-ICE 
  Pauline Colinet        : FMM embedding                                 
  Dipayan Datta          : RHF DLPNO-CCSD density                        
  Achintya Kumar Dutta   : EOM-CC, STEOM-CC                              
  Nicolas Foglia         : Exact transition moments, OPA infrastructure, MCD improvements    
  Dmitry Ganyushin       : Spin-Orbit,Spin-Spin,Magnetic field MRCI      
  Miquel Garcia-Rates    : C-PCM and meta-GGA Hessian, CCSD/C-PCM, Gaussian charge scheme 
  Tiago L. C. Gouveia    : GS-ROHF, GS-ROCIS                             
  Yang Guo               : DLPNO-NEVPT2, F12-NEVPT2, CIM, IAO-localization        
  Andreas Hansen         : Spin unrestricted coupled pair/coupled cluster methods 
  Ingolf Harden          : AUTO-CI MPn and infrastructure                
  Benjamin Helmich-Paris : MC-RPA, TRAH-(SCF,CASSCF), AVAS, COSX integrals, SCF dyn. polar. 
  Lee Huntington         : MR-EOM, pCC                                   
  Robert Izsak           : Overlap fitted RIJCOSX, COSX-SCS-MP3, EOM     
  Riya Kayal             : Wick's Theorem for AUTO-CI, AUTO-CI UHF-CCSDT 
  Emily Kempfer          : AUTO-CI, RHF CISDT and CCSDT                  
  Christian Kollmar      : KDIIS, OOCD, Brueckner-CCSD(T), CCSD density, CASPT2, CASPT2-K, improved NEVPT2 
  Axel Koslowski         : Symmetry handling                             
  Simone Kossmann        : meta-GGA functionals, TD-DFT gradient, OOMP2, (MP2 Hessian; deprecated post 5.0) 
  Lucas Lang             : DCDCAS                                        
  Marvin Lechner         : AUTO-CI (C++ implementation), FIC-MRCC        
  Spencer Leger          : CASSCF response                               
  Dagmar Lenk            : GEPOL surface, SMD, ORCA-2-JSON               
  Dimitrios Liakos       : Extrapolation schemes; Compound Job, initial MDCI parallelization 
  Dimitrios Manganas     : Further ROCIS development; embedding schemes. LFT, Crystal Embedding 
  Dimitrios Pantazis     : SARC Basis sets                               
  Anastasios Papadopoulos: AUTO-CI, single reference methods and gradients 
  Taras Petrenko         : pre 6.0 DFT Hessian and TD-DFT gradient, (ASA, deprecated), ECA, 1-Electron XAS/XES, NRVS 
  Peter Pinski           : DLPNO-MP2, DLPNO-MP2 Gradient                 
  Christoph Reimann      : Effective Core Potentials                     
  Marius Retegan         : Local ZFS, SOC                                
  Christoph Riplinger    : Optimizer, TS searches, QM/MM, DLPNO-CCSD(T), (RO)-DLPNO pert. Triples 
  Michael Roemelt        : Original ROCIS implementation                 
  Masaaki Saitow         : Open-shell DLPNO-CCSD energy and density      
  Barbara Sandhoefer     : DKH picture change effects                    
  Kantharuban Sivalingam : CASSCF convergence/infrastructure, NEVPT2 and variants, FIC-MRCI 
  Bernardo de Souza      : ESD, SOC TD-DFT                               
  Georgi L. Stoychev     : AutoAux, RI-MP2 NMR, DLPNO-MP2 response, X2C  
  Van Anh Tran           : RI-MP2 g-tensors                              
  Willem Van den Heuvel  : Paramagnetic NMR                              
  Zikuan Wang            : NOTCH, Electric field optimization            
  Frank Wennmohs         : Technical directorship and infrastructure     
  Hang Xu                : AUTO-CI-Response properties                   
                                                                         
[FACCTs GmbH]                                                            
  Markus Bursch, Miquel Garcia-Rates, Christoph Riplinger, Bernardo de Souza, Georgi L. Stoychev 
                                                                 
  APM, Basis sets (HGBS, AHGBS, def-TZVP (Ac-Lr), def2-XVPD (La-Lu)), CI-OPT, improved COSX, DLPNO-Multilevel,           
  DOCKER, DRACO, updates on ESD, GOAT, IRC, LR-CPCM, MBIS, meta-GGA TD-DFT gradient, ML-optimized integration grids, 
  MM, NACMEs, nearIR, NEB, NEB-TS, NL-DFT gradient (VV10), 2- and 3-layer-ONIOM, interface openCOSMO-RS, QMMM,   
  Crystal-QMMM, SF, symmetry and pop. for TD-DFT, r2SCAN hybrids, SOLVATOR                                   
                                                                         
[Other institutions]                                                     
  V. Asgeirsson          : NEB                                           
  Christoph Bannwarth    : sTDA-DFT, sTD-DFT, PBEh-3c, B97-3c, D3        
  Sebastian Ehlert       : rSCAN, r2SCAN, r2SCAN-3c, D4, dhf basis sets  
  Marvin Friede          : D4 for Fr, Ra, Ac-Lr                          
  Lars Goerigk           : TD-DFT with DH, B97 family of functionals     
  Stefan Grimme          : VdW corrections, initial TS optimization, DFT functionals, gCP, sTDA/sTD-DF 
  Waldemar Hujo          : DFT-NL                                        
  H. Jonsson             : NEB                                           
  Holger Kruse           : gCP                                           
  Marcel Mueller         : wB97X-3c, vDZP basis set                      
  Hagen Neugebauer       : wr2SCAN                                       
  Tobias Risthaus        : range-separated hybrid DFT                    
  Lukas Wittmann         : regularized MP2, r2SCAN double-hybrids, wr2SCAN        
                                                                         
We gratefully acknowledge several colleagues who have allowed us to      
interface, adapt or use parts of their codes:                            
  Ed Valeev, F. Pavosevic, A. Kumar             : LibInt (2-el integral package), F12 methods 
  Garnet Chan, S. Sharma, J. Yang, R. Olivares  : DMRG                   
  Ulf Ekstrom                                   : XCFun DFT Library      
  Mihaly Kallay                                 : mrcc  (arbitrary order and MRCC methods)
  Frank Weinhold                                : gennbo (NPA and NBO analysis)           
  Simon Mueller                                 : openCOSMO-RS                            
  Christopher J. Cramer and Donald G. Truhlar   : smd solvation model                     
  S Lehtola, MJT Oliveira, MAL Marques          : LibXC Library                           
  Liviu Ungur et al                             : ANISO software                          


 Your calculation uses the libint2 library for the computation of 2-el integrals
 For citations please refer to: http://libint.valeyev.net

 Your ORCA version has been built with support for libXC version: 6.2.2
 For citations please refer to: https://libxc.gitlab.io

 This ORCA versions uses:
   CBLAS   interface :  Fast vector & matrix operations
   LAPACKE interface :  Fast linear algebra routines
   SCALAPACK package :  Parallel linear algebra routines
   Shared memory     :  Shared parallel matrices
   BLAS/LAPACK       :  OpenBLAS 0.3.27  USE64BITINT DYNAMIC_ARCH NO_AFFINITY SapphireRapids SINGLE_THREADED
        Core in use  :  SapphireRapids
   Copyright (c) 2011-2014, The OpenBLAS Project




***************************************
The coordinates will be read from file: /scratch/kx58/rs2200/dhdft/inputs/compas3D-xyzs/hc_c24h14_0pent_8.xyz
***************************************


Your calculation utilizes the atom-pairwise dispersion correction
based on EEQ partial charges (D4)


Warning: RI is on but no J-basis has been assigned. Assigning Def2/J (nothing to worry about!)
================================================================================

----- Orbital basis set information -----
Your calculation utilizes the basis: def2-TZVP
   F. Weigend and R. Ahlrichs, Phys. Chem. Chem. Phys. 7, 3297 (2005).

----- AuxJ basis set information -----
Your calculation utilizes the auxiliary basis: def2/J
   F. Weigend, Phys. Chem. Chem. Phys. 8, 1057 (2006).

----- AuxC basis set information -----
Your calculation utilizes the auxiliary basis: def2-TZVP/C
  H-La, Hf-Rn : A. Hellweg, C. Hattig, S. Hofener and W. Klopper, Theor. Chem. Acc. 117, 587 (2007).
        Ce-Lu : J. Chmela and M. E. Harding, Mol. Phys. (2018).

================================================================================
                                        WARNINGS
                       Please study these warnings very carefully!
================================================================================


WARNING: No MP2 level density has been requested!
         To calculate MP2 level properties use
         %mp2 Density relaxed end
         or
         %mp2 Density unrelaxed end
         Otherwise for double-hybrid DFT only the energy is correct!

================================================================================
                                       INPUT FILE
================================================================================
NAME = compas3D_hc_c24h14_0pent_8_tz_ri.inp
|  1> ! RKS revDSD-PBEP86-D4/2021 defgrid3  NOPOP NoFrozencore NoUseSym
|  2> 
|  3> %basis
|  4> Basis "def2-TZVP"
|  5> 
|  6> AuxC "def2-TZVP/C"
|  7> end
|  8> 
|  9> %method
| 10> ScalHFX 0.69
| 11> ScalDFX 0.31
| 12> ScalDFC 0.4038
| 13> ScalLDAC 0.4038
| 14> 
| 15> D4S6 0.4612
| 16> D4S8 0.0
| 17> D4A1 0.44
| 18> D4A2 3.60
| 19> end
| 20> 
| 21> %mp2
| 22> PS 0.5979
| 23> PT 0.0571
| 24> end
| 25> 
| 26> %pal
| 27> nprocs 104
| 28> end
| 29> 
| 30> *XYZFILE 0 1 /scratch/kx58/rs2200/dhdft/inputs/compas3D-xyzs/hc_c24h14_0pent_8.xyz
| 31> 
| 32>                          ****END OF INPUT****
================================================================================

                       ****************************
                       * Single Point Calculation *
                       ****************************

---------------------------------
CARTESIAN COORDINATES (ANGSTROEM)
---------------------------------
  C      1.815935    0.170901   -0.000913
  C      0.412159    0.315068    0.000129
  C     -0.175471    1.627321    0.003400
  C      0.665482    2.772582    0.005486
  C      2.081572    2.590354    0.003636
  C      2.628322    1.349181    0.000604
  C      2.409138   -1.142306   -0.002847
  C      1.553338   -2.273518   -0.002325
  C      0.148889   -2.089556   -0.001452
  C     -0.436552   -0.847378   -0.001215
  C     -1.900073   -0.676155   -0.002118
  C     -2.463388    0.616881    0.001727
  C     -1.588970    1.801110    0.005300
  C     -2.101217    3.094622    0.009922
  C     -1.267551    4.217021    0.012088
  C      0.101103    4.061053    0.009705
  C      3.809880   -1.368191   -0.004866
  C      4.328123   -2.640347   -0.005783
  C      3.471434   -3.762581   -0.004697
  C      2.113108   -3.577947   -0.003056
  C     -2.763604   -1.786991   -0.007278
  C     -4.137155   -1.641657   -0.007688
  C     -4.694675   -0.361056   -0.003133
  C     -3.864711    0.743028    0.001267
  H      2.720731    3.475895    0.005031
  H      3.712416    1.252272   -0.000307
  H     -0.462754   -2.990322   -0.000918
  H     -3.177448    3.256624    0.011943
  H     -1.709711    5.215143    0.015647
  H      0.763313    4.929466    0.011260
  H      4.498618   -0.524771   -0.005869
  H      5.410396   -2.784438   -0.007388
  H      3.892610   -4.769804   -0.005264
  H      1.436578   -4.435766   -0.002387
  H     -2.351482   -2.794378   -0.011594
  H     -4.778711   -2.524910   -0.011817
  H     -5.778330   -0.228989   -0.003402
  H     -4.320345    1.731540    0.004170

----------------------------
CARTESIAN COORDINATES (A.U.)
----------------------------
  NO LB      ZA    FRAG     MASS         X           Y           Z
   0 C     6.0000    0    12.011    3.431621    0.322956   -0.001724
   1 C     6.0000    0    12.011    0.778867    0.595392    0.000243
   2 C     6.0000    0    12.011   -0.331592    3.075191    0.006426
   3 C     6.0000    0    12.011    1.257579    5.239420    0.010367
   4 C     6.0000    0    12.011    3.933602    4.895061    0.006872
   5 C     6.0000    0    12.011    4.966809    2.549583    0.001141
   6 C     6.0000    0    12.011    4.552612   -2.158645   -0.005380
   7 C     6.0000    0    12.011    2.935384   -4.296326   -0.004393
   8 C     6.0000    0    12.011    0.281359   -3.948689   -0.002744
   9 C     6.0000    0    12.011   -0.824963   -1.601313   -0.002296
  10 C     6.0000    0    12.011   -3.590617   -1.277748   -0.004002
  11 C     6.0000    0    12.011   -4.655129    1.165737    0.003263
  12 C     6.0000    0    12.011   -3.002718    3.403605    0.010016
  13 C     6.0000    0    12.011   -3.970724    5.847988    0.018750
  14 C     6.0000    0    12.011   -2.395324    7.969014    0.022844
  15 C     6.0000    0    12.011    0.191057    7.674277    0.018341
  16 C     6.0000    0    12.011    7.199631   -2.585507   -0.009196
  17 C     6.0000    0    12.011    8.178966   -4.989533   -0.010929
  18 C     6.0000    0    12.011    6.560060   -7.110247   -0.008876
  19 C     6.0000    0    12.011    3.993195   -6.761340   -0.005774
  20 C     6.0000    0    12.011   -5.222455   -3.376923   -0.013754
  21 C     6.0000    0    12.011   -7.818090   -3.102283   -0.014528
  22 C     6.0000    0    12.011   -8.871650   -0.682297   -0.005920
  23 C     6.0000    0    12.011   -7.303245    1.404120    0.002395
  24 H     1.0000    0     1.008    5.141437    6.568489    0.009507
  25 H     1.0000    0     1.008    7.015449    2.366452   -0.000580
  26 H     1.0000    0     1.008   -0.874479   -5.650890   -0.001735
  27 H     1.0000    0     1.008   -6.004507    6.154127    0.022568
  28 H     1.0000    0     1.008   -3.230885    9.855192    0.029569
  29 H     1.0000    0     1.008    1.442453    9.315342    0.021278
  30 H     1.0000    0     1.008    8.501156   -0.991674   -0.011090
  31 H     1.0000    0     1.008   10.224167   -5.261826   -0.013962
  32 H     1.0000    0     1.008    7.355967   -9.013623   -0.009948
  33 H     1.0000    0     1.008    2.714739   -8.382383   -0.004511
  34 H     1.0000    0     1.008   -4.443656   -5.280609   -0.021910
  35 H     1.0000    0     1.008   -9.030456   -4.771389   -0.022331
  36 H     1.0000    0     1.008  -10.919461   -0.432726   -0.006428
  37 H     1.0000    0     1.008   -8.164269    3.272136    0.007880

--------------------------------
INTERNAL COORDINATES (ANGSTROEM)
--------------------------------
 C      0   0   0     0.000000000000     0.00000000     0.00000000
 C      1   0   0     1.411160471951     0.00000000     0.00000000
 C      2   1   0     1.437820519679   119.98664737     0.00000000
 C      3   2   1     1.420854715833   119.58769789     0.00000000
 C      4   3   2     1.427768022124   118.95656783     0.02920800
 C      5   4   3     1.356265216798   121.10678601   359.96764383
 C      1   2   3     1.440973720453   120.17339862   179.93828225
 C      7   1   2     1.418461962546   118.58151804   359.93822703
 C      8   7   1     1.416446527722   119.64634272     0.07052612
 C      9   8   7     1.373224921229   122.69698073     0.00000000
 C     10   9   8     1.473503165181   121.90749110   179.91689863
 C     11  10   9     1.410419377025   120.21319106   179.83232957
 C      3   2   1     1.424143624955   121.13234136   180.03695297
 C     13   3   2     1.391255020538   118.61358604   179.93100957
 C     14  13   3     1.398135289710   121.79267578     0.03032102
 C     15  14  13     1.377513904791   120.10176067     0.00000000
 C      7   1   2     1.418840040004   123.47046824   179.95729729
 C     17   7   1     1.373665313604   121.32540589   179.95683818
 C     18  17   7     1.411851219916   120.47796742     0.00000000
 C     19  18  17     1.370818424608   119.61672876     0.00000000
 C     11  10   9     1.407006958331   121.18744668   359.80915084
 C     21  11  10     1.381218727283   121.82038390   179.97576570
 C     22  21  11     1.396706627425   119.56594733     0.00000000
 C     23  22  21     1.381253497583   119.54107618     0.00000000
 H      5   4   3     1.092111530139   118.48785470   179.98630532
 H      6   5   4     1.088416738823   118.88222159   180.02531683
 H      9   8   7     1.088800862511   116.71511381   180.00949690
 H     14  13   3     1.088358213678   120.16463042   180.02918194
 H     15  14  13     1.091680677631   119.50393400   179.99545365
 H     16  15  14     1.092093328162   120.82592703   179.99405397
 H     17   7   1     1.088907011984   120.07441611   359.94794875
 H     18  17   7     1.091824664687   119.74829925   179.99703484
 H     19  18  17     1.091736164342   119.95013380   180.01055726
 H     20  19  18     1.092495311675   120.52093076   179.98852717
 H     21  11  10     1.088435993186   119.89054765   359.94487898
 H     22  21  11     1.091671688434   119.95293530   179.99643585
 H     23  22  21     1.091672873476   120.47451784   179.99922036
 H     24  23  22     1.088469762184   118.32093949   179.96386312

---------------------------
INTERNAL COORDINATES (A.U.)
---------------------------
 C      0   0   0     0.000000000000     0.00000000     0.00000000
 C      1   0   0     2.666706823003     0.00000000     0.00000000
 C      2   1   0     2.717087011925   119.98664737     0.00000000
 C      3   2   1     2.685026289015   119.58769789     0.00000000
 C      4   3   2     2.698090544584   118.95656783     0.02920800
 C      5   4   3     2.562969824711   121.10678601   359.96764383
 C      1   2   3     2.723045697834   120.17339862   179.93828225
 C      7   1   2     2.680504640596   118.58151804   359.93822703
 C      8   7   1     2.676696020738   119.64634272     0.07052612
 C      9   8   7     2.595019021397   122.69698073     0.00000000
 C     10   9   8     2.784517439658   121.90749110   179.91689863
 C     11  10   9     2.665306356552   120.21319106   179.83232957
 C      3   2   1     2.691241426535   121.13234136   180.03695297
 C     13   3   2     2.629090971259   118.61358604   179.93100957
 C     14  13   3     2.642092795722   121.79267578     0.03032102
 C     15  14  13     2.603124025723   120.10176067     0.00000000
 C      7   1   2     2.681219103450   123.47046824   179.95729729
 C     17   7   1     2.595851242379   121.32540589   179.95683818
 C     18  17   7     2.668012147484   120.47796742     0.00000000
 C     19  18  17     2.590471401842   119.61672876     0.00000000
 C     11  10   9     2.658857819766   121.18744668   359.80915084
 C     21  11  10     2.610125125608   121.82038390   179.97576570
 C     22  21  11     2.639393015266   119.56594733     0.00000000
 C     23  22  21     2.610190831953   119.54107618     0.00000000
 H      5   4   3     2.063791699660   118.48785470   179.98630532
 H      6   5   4     2.056809555952   118.88222159   180.02531683
 H      9   8   7     2.057535444522   116.71511381   180.00949690
 H     14  13   3     2.056698959456   120.16463042   180.02918194
 H     15  14  13     2.062977506416   119.50393400   179.99545365
 H     16  15  14     2.063757302909   120.82592703   179.99405397
 H     17   7   1     2.057736037956   120.07441611   359.94794875
 H     18  17   7     2.063249602518   119.74829925   179.99703484
 H     19  18  17     2.063082361103   119.95013380   180.01055726
 H     20  19  18     2.064516941658   120.52093076   179.98852717
 H     21  11  10     2.056845941424   119.89054765   359.94487898
 H     22  21  11     2.062960519296   119.95293530   179.99643585
 H     23  22  21     2.062962758701   120.47451784   179.99922036
 H     24  23  22     2.056909755582   118.32093949   179.96386312

---------------------
BASIS SET INFORMATION
---------------------
There are 2 groups of distinct atoms

 Group   1 Type C   : 11s6p2d1f contracted to 5s3p2d1f pattern {62111/411/11/1}
 Group   2 Type H   : 5s1p contracted to 3s1p pattern {311/1}

Atom   0C    basis set group =>   1
Atom   1C    basis set group =>   1
Atom   2C    basis set group =>   1
Atom   3C    basis set group =>   1
Atom   4C    basis set group =>   1
Atom   5C    basis set group =>   1
Atom   6C    basis set group =>   1
Atom   7C    basis set group =>   1
Atom   8C    basis set group =>   1
Atom   9C    basis set group =>   1
Atom  10C    basis set group =>   1
Atom  11C    basis set group =>   1
Atom  12C    basis set group =>   1
Atom  13C    basis set group =>   1
Atom  14C    basis set group =>   1
Atom  15C    basis set group =>   1
Atom  16C    basis set group =>   1
Atom  17C    basis set group =>   1
Atom  18C    basis set group =>   1
Atom  19C    basis set group =>   1
Atom  20C    basis set group =>   1
Atom  21C    basis set group =>   1
Atom  22C    basis set group =>   1
Atom  23C    basis set group =>   1
Atom  24H    basis set group =>   2
Atom  25H    basis set group =>   2
Atom  26H    basis set group =>   2
Atom  27H    basis set group =>   2
Atom  28H    basis set group =>   2
Atom  29H    basis set group =>   2
Atom  30H    basis set group =>   2
Atom  31H    basis set group =>   2
Atom  32H    basis set group =>   2
Atom  33H    basis set group =>   2
Atom  34H    basis set group =>   2
Atom  35H    basis set group =>   2
Atom  36H    basis set group =>   2
Atom  37H    basis set group =>   2
---------------------------------
AUXILIARY/J BASIS SET INFORMATION
---------------------------------
There are 2 groups of distinct atoms

 Group   1 Type C   : 12s5p4d2f1g contracted to 6s4p3d1f1g pattern {711111/2111/211/2/1}
 Group   2 Type H   : 5s2p1d contracted to 3s1p1d pattern {311/2/1}

Atom   0C    basis set group =>   1
Atom   1C    basis set group =>   1
Atom   2C    basis set group =>   1
Atom   3C    basis set group =>   1
Atom   4C    basis set group =>   1
Atom   5C    basis set group =>   1
Atom   6C    basis set group =>   1
Atom   7C    basis set group =>   1
Atom   8C    basis set group =>   1
Atom   9C    basis set group =>   1
Atom  10C    basis set group =>   1
Atom  11C    basis set group =>   1
Atom  12C    basis set group =>   1
Atom  13C    basis set group =>   1
Atom  14C    basis set group =>   1
Atom  15C    basis set group =>   1
Atom  16C    basis set group =>   1
Atom  17C    basis set group =>   1
Atom  18C    basis set group =>   1
Atom  19C    basis set group =>   1
Atom  20C    basis set group =>   1
Atom  21C    basis set group =>   1
Atom  22C    basis set group =>   1
Atom  23C    basis set group =>   1
Atom  24H    basis set group =>   2
Atom  25H    basis set group =>   2
Atom  26H    basis set group =>   2
Atom  27H    basis set group =>   2
Atom  28H    basis set group =>   2
Atom  29H    basis set group =>   2
Atom  30H    basis set group =>   2
Atom  31H    basis set group =>   2
Atom  32H    basis set group =>   2
Atom  33H    basis set group =>   2
Atom  34H    basis set group =>   2
Atom  35H    basis set group =>   2
Atom  36H    basis set group =>   2
Atom  37H    basis set group =>   2
---------------------------------
AUXILIARY/C BASIS SET INFORMATION
---------------------------------
There are 2 groups of distinct atoms

 Group   1 Type C   : 8s6p5d3f1g contracted to 8s6p4d3f1g pattern {11111111/111111/2111/111/1}
 Group   2 Type H   : 4s3p2d contracted to 4s2p1d pattern {1111/21/2}

Atom   0C    basis set group =>   1
Atom   1C    basis set group =>   1
Atom   2C    basis set group =>   1
Atom   3C    basis set group =>   1
Atom   4C    basis set group =>   1
Atom   5C    basis set group =>   1
Atom   6C    basis set group =>   1
Atom   7C    basis set group =>   1
Atom   8C    basis set group =>   1
Atom   9C    basis set group =>   1
Atom  10C    basis set group =>   1
Atom  11C    basis set group =>   1
Atom  12C    basis set group =>   1
Atom  13C    basis set group =>   1
Atom  14C    basis set group =>   1
Atom  15C    basis set group =>   1
Atom  16C    basis set group =>   1
Atom  17C    basis set group =>   1
Atom  18C    basis set group =>   1
Atom  19C    basis set group =>   1
Atom  20C    basis set group =>   1
Atom  21C    basis set group =>   1
Atom  22C    basis set group =>   1
Atom  23C    basis set group =>   1
Atom  24H    basis set group =>   2
Atom  25H    basis set group =>   2
Atom  26H    basis set group =>   2
Atom  27H    basis set group =>   2
Atom  28H    basis set group =>   2
Atom  29H    basis set group =>   2
Atom  30H    basis set group =>   2
Atom  31H    basis set group =>   2
Atom  32H    basis set group =>   2
Atom  33H    basis set group =>   2
Atom  34H    basis set group =>   2
Atom  35H    basis set group =>   2
Atom  36H    basis set group =>   2
Atom  37H    basis set group =>   2


           ************************************************************
           *        Program running with 104 parallel MPI-processes   *
           *              working on a common directory               *
           ************************************************************
------------------------------------------------------------------------------
                             ORCA STARTUP CALCULATIONS
                           -- RI-GTO INTEGRALS CHOSEN --
------------------------------------------------------------------------------
------------------------------------------------------------------------------
                   ___                                                        
                  /   \      - P O W E R E D   B Y -                         
                 /     \                                                     
                 |  |  |   _    _      __       _____    __    __             
                 |  |  |  | |  | |    /  \     |  _  \  |  |  /  |          
                  \  \/   | |  | |   /    \    | | | |  |  | /  /          
                 / \  \   | |__| |  /  /\  \   | |_| |  |  |/  /          
                |  |  |   |  __  | /  /__\  \  |    /   |      \           
                |  |  |   | |  | | |   __   |  |    \   |  |\   \          
                \     /   | |  | | |  |  |  |  | |\  \  |  | \   \       
                 \___/    |_|  |_| |__|  |__|  |_| \__\ |__|  \__/        
                                                                              
                      - O R C A' S   B I G   F R I E N D -                    
                                      &                                       
                       - I N T E G R A L  F E E D E R -                       
                                                                              
 v1 FN, 2020, v2 2021, v3 2022-2024                                           
------------------------------------------------------------------------------


----------------------
SHARK INTEGRAL PACKAGE
----------------------

Number of atoms                             ...     38
Number of basis functions                   ...    828
Number of shells                            ...    320
Maximum angular momentum                    ...      3
Integral batch strategy                     ... SHARK/LIBINT Hybrid
RI-J (if used) integral strategy            ... SPLIT-RIJ (Revised 2003 algorithm where possible)
Printlevel                                  ...      1
Contraction scheme used                     ... SEGMENTED contraction
Prescreening option                         ... SCHWARTZ
   Thresh                                   ... 1.000e-10
   Tcut                                     ... 1.000e-11
   Tpresel                                  ... 1.000e-11 
Coulomb Range Separation                    ... NOT USED
Exchange Range Separation                   ... NOT USED
Multipole approximations                    ... NOT USED
Finite Nucleus Model                        ... NOT USED
CABS basis                                  ... NOT available
Auxiliary Coulomb fitting basis             ... AVAILABLE
   # of basis functions in Aux-J            ...   1330
   # of shells in Aux-J                     ...    430
   Maximum angular momentum in Aux-J        ...      4
Auxiliary J/K fitting basis                 ... NOT available
Auxiliary Correlation fitting basis         ... AVAILABLE
   # of basis functions in Aux-C            ...   2034
   # of shells in Aux-C                     ...    626
   Maximum angular momentum in Aux-C        ...      4
Auxiliary 'external' fitting basis          ... NOT available

Checking pre-screening integrals            ... done (  0.0 sec) Dimension = 320
Check shell pair data                       ... done (  0.0 sec)
Shell pair information
Shell pair cut-off parameter TPreSel        ...   1.0e-11
Total number of shell pairs                 ...     51360
Shell pairs after pre-screening             ...     36514
Total number of primitive shell pairs       ...    159900
Primitive shell pairs kept                  ...     75600
          la=0 lb=0:   8788 shell pairs
          la=1 lb=0:  10367 shell pairs
          la=1 lb=1:   2997 shell pairs
          la=2 lb=0:   5403 shell pairs
          la=2 lb=1:   3124 shell pairs
          la=2 lb=2:    854 shell pairs
          la=3 lb=0:   2505 shell pairs
          la=3 lb=1:   1495 shell pairs
          la=3 lb=2:    784 shell pairs
          la=3 lb=3:    197 shell pairs

Calculating one electron integrals          ... done (  0.7 sec)
Calculating RI/J V-Matrix + Cholesky decomp.... done (  0.3 sec)
Calculating RI/C V-Matrix + Cholesky decomp.... done (  0.4 sec)
Calculating Nuclear repulsion               ... done (  0.0 sec) ENN=   1805.003146229778 Eh

Diagonalization of the overlap matrix:
Smallest eigenvalue                        ... 1.356e-06
Time for diagonalization                   ...    0.115 sec
Threshold for overlap eigenvalues          ... 1.000e-07
Number of eigenvalues below threshold      ... 0
Time for construction of square roots      ...    0.051 sec
Total time needed                          ...    0.192 sec

-------------------
DFT GRID GENERATION
-------------------

General Integration Accuracy     IntAcc      ... 4.959
Radial Grid Type                 RadialGrid  ... OptM3 with GC (2021)
Angular Grid (max. ang.)         AngularGrid ... 6 (Lebedev-590)
Angular grid pruning method      GridPruning ... 4 (adaptive)
Weight generation scheme         WeightScheme... mBecke (2022)
Basis function cutoff            BFCut       ... 1.0000e-10
Integration weight cutoff        WCut        ... 1.0000e-14
Partially contracted basis set               ... off
Rotationally invariant grid construction     ... off
Angular grids for H and He will be reduced by one unit

Total number of grid points                  ...   457436
Total number of batches                      ...     7164
Average number of points per batch           ...       63
Average number of grid points per atom       ...    12038

--------------------
COSX GRID GENERATION
--------------------

GRIDX 1
-------
General Integration Accuracy     IntAcc      ... 4.020
Radial Grid Type                 RadialGrid  ... OptM3 with GC (2021)
Angular Grid (max. ang.)         AngularGrid ... 2 (Lebedev-110)
Angular grid pruning method      GridPruning ... 4 (adaptive)
Weight generation scheme         WeightScheme... mBecke (2022)
Basis function cutoff            BFCut       ... 1.0000e-10
Integration weight cutoff        WCut        ... 1.0000e-14
Partially contracted basis set               ... on
Rotationally invariant grid construction     ... off
Angular grids for H and He will be reduced by one unit

Total number of grid points                  ...    52120
Total number of batches                      ...      421
Average number of points per batch           ...      123
Average number of grid points per atom       ...     1372
UseSFitting                                  ... on

GRIDX 2
-------
General Integration Accuracy     IntAcc      ... 4.338
Radial Grid Type                 RadialGrid  ... OptM3 with GC (2021)
Angular Grid (max. ang.)         AngularGrid ... 3 (Lebedev-194)
Angular grid pruning method      GridPruning ... 4 (adaptive)
Weight generation scheme         WeightScheme... mBecke (2022)
Basis function cutoff            BFCut       ... 1.0000e-10
Integration weight cutoff        WCut        ... 1.0000e-14
Partially contracted basis set               ... on
Rotationally invariant grid construction     ... off
Angular grids for H and He will be reduced by one unit

Total number of grid points                  ...   114256
Total number of batches                      ...      913
Average number of points per batch           ...      125
Average number of grid points per atom       ...     3007
UseSFitting                                  ... on

GRIDX 3
-------
General Integration Accuracy     IntAcc      ... 4.871
Radial Grid Type                 RadialGrid  ... OptM3 with GC (2021)
Angular Grid (max. ang.)         AngularGrid ... 4 (Lebedev-302)
Angular grid pruning method      GridPruning ... 4 (adaptive)
Weight generation scheme         WeightScheme... mBecke (2022)
Basis function cutoff            BFCut       ... 1.0000e-10
Integration weight cutoff        WCut        ... 1.0000e-14
Partially contracted basis set               ... on
Rotationally invariant grid construction     ... off
Angular grids for H and He will be reduced by one unit

Total number of grid points                  ...   210950
Total number of batches                      ...     1667
Average number of points per batch           ...      126
Average number of grid points per atom       ...     5551
UseSFitting                                  ... on
Initializing property integral containers    ... done (  0.0 sec)

SHARK setup successfully completed in   8.5 seconds

Maximum memory used throughout the entire STARTUP-calculation: 118.7 MB


           ************************************************************
           *        Program running with 104 parallel MPI-processes   *
           *              working on a common directory               *
           ************************************************************
-------------------------------------------------------------------------------
                                 ORCA GUESS
                   Start orbitals & Density for SCF / CASSCF
-------------------------------------------------------------------------------

------------
SCF SETTINGS
------------
Hamiltonian:
 Density Functional     Method          .... DFT(GTOs)
 Exchange Functional    Exchange        .... PBE
   PBE kappa parameter   XKappa         ....  0.804000
   PBE mue parameter    XMuePBE         ....  0.219520
 Correlation Functional Correlation     .... P86
 LDA part of GGA corr.  LDAOpt          .... VWN-5
 Gradients option       PostSCFGGA      .... off
 Hybrid DFT is turned on
   Fraction HF Exchange ScalHFX         ....  0.690000
   Scaling of DF-GGA-X  ScalDFX         ....  0.310000
   Scaling of DF-GGA-C  ScalDFC         ....  0.403800
   Scaling of DF-LDA-C  ScalLDAC        ....  0.403800
   Perturbative correction              ....  1.000000
 RI-approximation to the Coulomb term is turned on
   Number of AuxJ basis functions       .... 1330
   RIJ-COSX (HFX calculated with COS-X)).... on


General Settings:
 Integral files         IntName         .... compas3D_hc_c24h14_0pent_8_tz_ri
 Hartree-Fock type      HFTyp           .... RHF
 Total Charge           Charge          ....    0
 Multiplicity           Mult            ....    1
 Number of Electrons    NEL             ....  158
 Basis Dimension        Dim             ....  828
 Nuclear Repulsion      ENuc            ....   1805.0031462298 Eh

Convergence Acceleration:
 AO-DIIS                CNVDIIS         .... on
   Start iteration      DIISMaxIt       ....    12
   Startup error        DIISStart       ....  0.200000
   # of expansion vecs  DIISMaxEq       ....     5
   Bias factor          DIISBfac        ....   1.050
   Max. coefficient     DIISMaxC        ....  10.000
 MO-DIIS                CNVKDIIS        .... off
 Trust-Rad. Augm. Hess. CNVTRAH         .... auto
   Auto Start mean grad. ratio tolernc. ....  1.125000
   Auto Start start iteration           ....    50
   Auto Start num. interpolation iter.  ....    10
   Max. Number of Micro iterations      ....    24
   Max. Number of Macro iterations      .... Maxiter - #DIIS iter
   Number of Davidson start vectors     ....     2
   Converg. threshold    (grad. norm)   ....   5.000e-05
   Grad. Scal. Fac. for Micro threshold ....   0.100
   Minimum threshold for Micro iter.    ....   1.000e-02
   NR start threshold (gradient norm)   ....   1.000e-04
   Initial trust radius                 ....   0.400
   Minimum AH scaling param. (alpha)    ....   1.000
   Maximum AH scaling param. (alpha)    .... 1000.000
   Quad. conv. algorithm                .... NR
   White noise on init. David. guess    .... on
   Maximum white noise                  ....   0.010
   Pseudo random numbers                .... off
   Inactive MOs                         .... canonical
   Orbital update algorithm             .... Taylor
   Preconditioner                       .... Diag
   Full preconditioner red. dimension   ....   250
 SOSCF                  CNVSOSCF        .... on
   Start iteration      SOSCFMaxIt      ....   150
   Startup grad/error   SOSCFStart      ....  0.003300
   Hessian update       SOSCFHessUp     .... L-BFGS
 Level Shifting         CNVShift        .... on
   Level shift para.    LevelShift      ....    0.2500
   Turn off err/grad.   ShiftErr        ....    0.0010
 Zerner damping         CNVZerner       .... off
 Static damping         CNVDamp         .... on
   Fraction old density DampFac         ....    0.7000
   Max. Damping (<1)    DampMax         ....    0.9800
   Min. Damping (>=0)   DampMin         ....    0.0000
   Turn off err/grad.   DampErr         ....    0.1000

SCF Procedure:
 Maximum # iterations   MaxIter         ....   125
 SCF integral mode      SCFMode         .... Direct
   Integral package                     .... SHARK and LIBINT hybrid scheme
 Reset frequency        DirectResetFreq ....    20
 Integral Threshold     Thresh          ....  1.000e-10 Eh
 Primitive CutOff       TCut            ....  1.000e-11 Eh

Convergence Tolerance:
 Convergence Check Mode ConvCheckMode   .... Total+1el-Energy
 Convergence forced     ConvForced      .... 0
 Energy Change          TolE            ....  1.000e-06 Eh
 1-El. energy change                    ....  1.000e-03 Eh
 Orbital Gradient       TolG            ....  5.000e-05
 Orbital Rotation angle TolX            ....  5.000e-05
 DIIS Error             TolErr          ....  1.000e-06

------------------------------
INITIAL GUESS: MODEL POTENTIAL
------------------------------
Loading Hartree-Fock densities                     ... done
Calculating cut-offs                               ... done
Initializing the effective Hamiltonian             ... done
Setting up the integral package (SHARK)            ... done
Starting the Coulomb interaction                   ... done (   0.1 sec)
Making the grid                                    ... done (   0.2 sec)
Mapping shells                                     ... done
Starting the XC term evaluation                    ... done (   0.1 sec)
  promolecular density results
     # of electrons  =    157.982517619
     EX              =   -126.959492338
     EC              =      0.206453902
     EX+EC           =   -126.753038436
Transforming the Hamiltonian                       ... done (   0.1 sec)
Diagonalizing the Hamiltonian                      ... done (   0.1 sec)
Back transforming the eigenvectors                 ... done (   0.0 sec)
Now organizing SCF variables                       ... done
                      ------------------
                      INITIAL GUESS DONE (   0.9 sec)
                      ------------------
             **** ENERGY FILE WAS UPDATED (compas3D_hc_c24h14_0pent_8_tz_ri.en.tmp) ****
Finished Guess after  16.0 sec
Maximum memory used throughout the entire GUESS-calculation: 66.6 MB


           ************************************************************
           *        Program running with 104 parallel MPI-processes   *
           *              working on a common directory               *
           ************************************************************

-------------------------------------------------------------------------------------------
                                      ORCA LEAN-SCF
                              memory conserving SCF solver
-------------------------------------------------------------------------------------------

----------------------------------------D-I-I-S--------------------------------------------
Iteration    Energy (Eh)           Delta-E    RMSDP     MaxDP     DIISErr   Damp  Time(sec)
-------------------------------------------------------------------------------------------
               ***  Starting incremental Fock matrix formation  ***
    1    -919.0340263750254053     0.00e+00  9.95e-04  3.16e-02  1.46e-01  0.700   3.8
    2    -919.2114456704325676    -1.77e-01  8.52e-04  3.42e-02  9.09e-02  0.700   3.1
                               ***Turning on AO-DIIS***
    3    -919.3161557003559210    -1.05e-01  6.55e-04  3.70e-02  5.14e-02  0.700   2.7
    4    -919.3815028908397835    -6.53e-02  1.55e-03  9.03e-02  3.51e-02  0.000   2.6
    5    -919.5238849492375266    -1.42e-01  1.12e-04  2.93e-03  3.48e-03  0.000   3.0
                              *** Initializing SOSCF ***
---------------------------------------S-O-S-C-F--------------------------------------
Iteration    Energy (Eh)           Delta-E    RMSDP     MaxDP     MaxGrad    Time(sec)
--------------------------------------------------------------------------------------
    6    -919.5241680434610316    -2.83e-04  6.93e-05  2.27e-03  1.23e-03     5.3
               *** Restarting incremental Fock matrix formation ***
    7    -919.5242325292952046    -6.45e-05  1.81e-04  7.19e-03  6.07e-04    17.0
    8    -919.5242563245387828    -2.38e-05  1.08e-04  3.69e-03  4.66e-04     4.0
    9    -919.5242662066993944    -9.88e-06  9.39e-05  5.04e-03  1.50e-04     2.9
   10    -919.5242675495428557    -1.34e-06  4.02e-05  2.55e-03  2.85e-05     2.9
   11    -919.5242674905571221     5.90e-08  4.63e-05  2.44e-03  2.22e-05     7.8
                 **** Energy Check signals convergence ****

               *****************************************************
               *                     SUCCESS                       *
               *           SCF CONVERGED AFTER  11 CYCLES          *
               *****************************************************

Recomputing exchange energy using gridx3       ... done (    2.992 sec)
Old exchange energy                            :    -89.454780341 Eh
New exchange energy                            :    -89.454742754 Eh
Exchange energy change after final integration :      0.000037587 Eh
Total energy after final integration           :   -919.524229904 Eh
             **** ENERGY FILE WAS UPDATED (compas3D_hc_c24h14_0pent_8_tz_ri.en.tmp) ****

----------------
TOTAL SCF ENERGY
----------------

Total Energy       :       -919.52422990390528 Eh          -25021.52637 eV

Components:
Nuclear Repulsion  :       1805.00314622977839 Eh           49116.63265 eV
Electronic Energy  :      -2724.52741372033552 Eh          -74138.16004 eV
One Electron Energy:      -4830.58495684387253 Eh         -131446.89931 eV
Two Electron Energy:       2106.05754312353702 Eh           57308.73927 eV

Virial components:
Potential Energy   :      -1836.34318790519274 Eh          -49969.43854 eV
Kinetic Energy     :        916.81895800128734 Eh           24947.91217 eV
Virial Ratio       :          2.00295071549187

DFT components:
N(Alpha)           :       79.000003624761 electrons
N(Beta)            :       79.000003624761 electrons
N(Total)           :      158.000007249522 electrons
E(X)               :      -40.017125830346 Eh       
E(C)               :       -2.352469569724 Eh       
E(XC)              :      -42.369595400071 Eh       

---------------
SCF CONVERGENCE
---------------

  Last Energy change         ...   -5.8986e-08  Tolerance :   1.0000e-06
  Last MAX-Density change    ...    2.4412e-03  Tolerance :   1.0000e-05
  Last RMS-Density change    ...    4.6343e-05  Tolerance :   1.0000e-06
  Last DIIS Error            ...    1.2266e-03  Tolerance :   1.0000e-06
  Last Orbital Gradient      ...    2.2182e-05  Tolerance :   5.0000e-05
  Last Orbital Rotation      ...    5.4068e-05  Tolerance :   5.0000e-05


----------------
ORBITAL ENERGIES
----------------

  NO   OCC          E(Eh)            E(eV) 
   0   2.0000     -10.838339      -294.9262 
   1   2.0000     -10.838165      -294.9215 
   2   2.0000     -10.837975      -294.9163 
   3   2.0000     -10.837667      -294.9079 
   4   2.0000     -10.837023      -294.8904 
   5   2.0000     -10.836937      -294.8880 
   6   2.0000     -10.835659      -294.8533 
   7   2.0000     -10.835364      -294.8452 
   8   2.0000     -10.832889      -294.7779 
   9   2.0000     -10.832572      -294.7693 
  10   2.0000     -10.825432      -294.5750 
  11   2.0000     -10.825406      -294.5743 
  12   2.0000     -10.825228      -294.5694 
  13   2.0000     -10.824793      -294.5576 
  14   2.0000     -10.824761      -294.5567 
  15   2.0000     -10.824371      -294.5461 
  16   2.0000     -10.824311      -294.5445 
  17   2.0000     -10.824123      -294.5394 
  18   2.0000     -10.823665      -294.5269 
  19   2.0000     -10.823600      -294.5251 
  20   2.0000     -10.823568      -294.5243 
  21   2.0000     -10.823360      -294.5186 
  22   2.0000     -10.823144      -294.5127 
  23   2.0000     -10.823115      -294.5119 
  24   2.0000      -1.093019       -29.7426 
  25   2.0000      -1.061227       -28.8775 
  26   2.0000      -1.049365       -28.5547 
  27   2.0000      -1.016753       -27.6672 
  28   2.0000      -0.995785       -27.0967 
  29   2.0000      -0.963975       -26.2311 
  30   2.0000      -0.950989       -25.8777 
  31   2.0000      -0.931795       -25.3554 
  32   2.0000      -0.916162       -24.9300 
  33   2.0000      -0.897952       -24.4345 
  34   2.0000      -0.889607       -24.2074 
  35   2.0000      -0.867881       -23.6162 
  36   2.0000      -0.791153       -21.5284 
  37   2.0000      -0.779403       -21.2086 
  38   2.0000      -0.775838       -21.1116 
  39   2.0000      -0.770673       -20.9711 
  40   2.0000      -0.739894       -20.1335 
  41   2.0000      -0.719507       -19.5788 
  42   2.0000      -0.702623       -19.1194 
  43   2.0000      -0.667496       -18.1635 
  44   2.0000      -0.658648       -17.9227 
  45   2.0000      -0.639528       -17.4024 
  46   2.0000      -0.631587       -17.1864 
  47   2.0000      -0.601714       -16.3735 
  48   2.0000      -0.592681       -16.1277 
  49   2.0000      -0.587839       -15.9959 
  50   2.0000      -0.577532       -15.7154 
  51   2.0000      -0.566412       -15.4129 
  52   2.0000      -0.553814       -15.0700 
  53   2.0000      -0.543714       -14.7952 
  54   2.0000      -0.531949       -14.4751 
  55   2.0000      -0.527753       -14.3609 
  56   2.0000      -0.523185       -14.2366 
  57   2.0000      -0.518602       -14.1119 
  58   2.0000      -0.516728       -14.0609 
  59   2.0000      -0.506672       -13.7872 
  60   2.0000      -0.493967       -13.4415 
  61   2.0000      -0.479043       -13.0354 
  62   2.0000      -0.478535       -13.0216 
  63   2.0000      -0.468596       -12.7511 
  64   2.0000      -0.464573       -12.6417 
  65   2.0000      -0.456013       -12.4087 
  66   2.0000      -0.448254       -12.1976 
  67   2.0000      -0.437523       -11.9056 
  68   2.0000      -0.422865       -11.5067 
  69   2.0000      -0.413737       -11.2584 
  70   2.0000      -0.406301       -11.0560 
  71   2.0000      -0.400092       -10.8871 
  72   2.0000      -0.364178        -9.9098 
  73   2.0000      -0.342192        -9.3115 
  74   2.0000      -0.327352        -8.9077 
  75   2.0000      -0.309397        -8.4191 
  76   2.0000      -0.286615        -7.7992 
  77   2.0000      -0.268806        -7.3146 
  78   2.0000      -0.236979        -6.4485 
  79   0.0000      -0.001362        -0.0370 
  80   0.0000       0.027352         0.7443 
  81   0.0000       0.032090         0.8732 
  82   0.0000       0.057081         1.5532 
  83   0.0000       0.075856         2.0641 
  84   0.0000       0.105258         2.8642 
  85   0.0000       0.110109         2.9962 
  86   0.0000       0.112890         3.0719 
  87   0.0000       0.115402         3.1402 
  88   0.0000       0.121403         3.3036 
  89   0.0000       0.128570         3.4986 
*Only the first 10 virtual orbitals were printed.
-------
TIMINGS
-------

Total SCF time: 0 days 0 hours 1 min 13 sec 

Total time                  ....      73.498 sec
Sum of individual times     ....      72.960 sec  ( 99.3%)

SCF preparation             ....      14.783 sec  ( 20.1%)
Fock matrix formation       ....      49.751 sec  ( 67.7%)
  Startup                   ....       0.970 sec  (  2.0% of F)
  Split-RI-J                ....       2.984 sec  (  6.0% of F)
  Chain of spheres X        ....      16.618 sec  ( 33.4% of F)
  XC integration            ....      26.804 sec  ( 53.9% of F)
    XC Preparation          ....       0.000 sec  (  0.0% of XC)
    Basis function eval.    ....       0.487 sec  (  1.8% of XC)
    Density eval.           ....       0.540 sec  (  2.0% of XC)
    XC-Functional eval.     ....       0.038 sec  (  0.1% of XC)
    XC-Potential eval.      ....       0.431 sec  (  1.6% of XC)
Diagonalization             ....       0.000 sec  (  0.0%)
Density matrix formation    ....       1.478 sec  (  2.0%)
Total Energy calculation    ....       1.049 sec  (  1.4%)
Population analysis         ....       0.000 sec  (  0.0%)
Orbital Transformation      ....       0.694 sec  (  0.9%)
Orbital Orthonormalization  ....       0.000 sec  (  0.0%)
DIIS solution               ....       3.428 sec  (  4.7%)
SOSCF solution              ....       1.716 sec  (  2.3%)
Finished LeanSCF after  73.9 sec

Maximum memory used throughout the entire LEANSCF-calculation: 135.9 MB


           ************************************************************
           *        Program running with 104 parallel MPI-processes   *
           *              working on a common directory               *
           ************************************************************

------------------------------------------------------------------------------
                                ORCA  MP2 
------------------------------------------------------------------------------


-------------
RI-MP2 ENERGY
-------------
Dimension of the orbital basis            ...  828
Dimension of the AuxC basis               ... 2034
Memory devoted to MP2                     ... 4096 MB   
Data format for matrix containers         ... DOUBLE
Compression type for matrix containers    ... UNCOMPRESSED
Scaling for aa/bb pairs                   ...   5.710e-02
Scaling for ab pairs                      ...   5.979e-01
Overall scaling of the MP2 energy         ...   1.000e+00

-----------------------
SHARK RI TRANSFORMATION
-----------------------

Number of basis functions                ...    828
Number of aux functions                  ...   2034
Number of operators                      ...      1
Generation of IJK                        ... NO
Generation of IAK                        ... YES
Generation of ABK                        ... NO
Orbital Range Operator  0:    0-  78 to   79- 827

Aux basis identifier                     ...   AUXC
Contraction scheme used                  ... SEGMENTED
Do orthogonalization                     ... YES
All operator combinations                ... NO
Transpose (ia|K)                         ... NO
Integral generator used                  ... LIBINT
Starting integral generation + trafo... 
Half trafo (segmented) done. Total time =  0.8 sec. integrals=  0.3 sec trafo=  0.3 sec
Integral generation and half transformation done (  0.8 sec)

Reading or making V^(-1/2)          ... done (  0.1 sec)
Sorting IAK integrals               ... done (  1.4 sec)

SHARK RI integral transformation done. Total time =  2.4 sec.

Opening buffers                              ... done

Starting loop over batches of integrals:

Operator 0  - window                       ... (  0- 78)x( 79-827)
Operator 0  - Memory available             ...  4096 MB
Operator 0  - Memory needed per MO         ...  11.6 MB
Operator 0  - Number of orbitals per batch ... 1
Operator 0  - Number of batches            ... 1

OPERATOR  0   PASS   0:  MOs     0 ...    0 +    1 ...    1 +    2 ...    2 +    3 ...    3
                            +    4 ...    4 +    5 ...    5 +    6 ...    6 +    7 ...    7
                            +    8 ...    8 +    9 ...    9 +   10 ...   10 +   11 ...   11
                            +   12 ...   12 +   13 ...   13 +   14 ...   14 +   15 ...   15
                            +   16 ...   16 +   17 ...   17 +   18 ...   18 +   19 ...   19
                            +   20 ...   20 +   21 ...   21 +   22 ...   22 +   23 ...   23
                            +   24 ...   24 +   25 ...   25 +   26 ...   26 +   27 ...   27
                            +   28 ...   28 +   29 ...   29 +   30 ...   30 +   31 ...   31
                            +   32 ...   32 +   33 ...   33 +   34 ...   34 +   35 ...   35
                            +   36 ...   36 +   37 ...   37 +   38 ...   38 +   39 ...   39
                            +   40 ...   40 +   41 ...   41 +   42 ...   42 +   43 ...   43
                            +   44 ...   44 +   45 ...   45 +   46 ...   46 +   47 ...   47
                            +   48 ...   48 +   49 ...   49 +   50 ...   50 +   51 ...   51
                            +   52 ...   52 +   53 ...   53 +   54 ...   54 +   55 ...   55
                            +   56 ...   56 +   57 ...   57 +   58 ...   58 +   59 ...   59
                            +   60 ...   60 +   61 ...   61 +   62 ...   62 +   63 ...   63
                            +   64 ...   64 +   65 ...   65 +   66 ...   66 +   67 ...   67
                            +   68 ...   68 +   69 ...   69 +   70 ...   70 +   71 ...   71
                            +   72 ...   72 +   73 ...   73 +   74 ...   74 +   75 ...   75
                            +   76 ...   76 +   77 ...   77 +   78 ...   78
  Reading integrals       ... ok
Time spent in pair loops =     4.789 sec

-----------------------------------------------
 RI-MP2 CORRELATION ENERGY:     -2.140521881 Eh
-----------------------------------------------


-------
TIMINGS
-------

Total time                :    8.062 sec
Integral trafo            :    2.455 sec ( 30.5%)
I/O of integrals          :    0.006 sec (  0.1%)
K(i,j) operators          :    0.045 sec (  0.6%)
T(i,j) pair energies      :    0.008 sec (  0.1%)
V**(-1/2)                 :    0.815 sec ( 10.1%)


---------------------------------------
MP2 TOTAL ENERGY:     -921.664751785 Eh
---------------------------------------

Maximum memory used throughout the entire MP2-calculation: 111.4 MB


-------------------------------------------------------------------------------
                          DFT DISPERSION CORRECTION                            
                                                                               
                                DFTD4 V3.4.0                                   
-------------------------------------------------------------------------------
The REV-DSD-PBEP86-2021 functional is recognized
A user input s6-coefficient scaling factor has been recognized
A user input a1-coefficient scaling factor has been recognized
A user input s8-coefficient scaling factor has been recognized
A user input a2-coefficient scaling factor has been recognized
A user input s9-coefficient scaling factor has been recognized
Active option DFTDOPT                   ...         5   

-------------------------   ----------------
Dispersion correction           -0.038257348
-------------------------   ----------------


-------------------------   --------------------
FINAL SINGLE POINT ENERGY      -921.703009133095
-------------------------   --------------------



           ************************************************************
           *        Program running with 104 parallel MPI-processes   *
           *              working on a common directory               *
           ************************************************************

------------------------------------------------------------------------------
                              ORCA PROPERTY CALCULATIONS
------------------------------------------------------------------------------

GBWName                                 ... compas3D_hc_c24h14_0pent_8_tz_ri.gbw
Number of atoms                         ...     38
Number of basis functions               ...    828
Max core memory                         ...   1024 MB

Electric properties:
Dipole moment                           ... YES
Quadrupole moment                       ...  NO
Static polarizability (Dipole/Dipole)   ...  NO
Static polarizability (Dipole/Quad.)    ...  NO
Static polarizability (Quad./Quad.)     ...  NO
Static polarizability (Velocity)        ...  NO

Atomic electric properties:
Dipole moment                           ...  NO
Quadrupole moment                       ...  NO
Static polarizability                   ...  NO

Choice of electric origin               ... Center of mass
Position of electric origin             ...     0.009985     0.081922     0.000437

General magnetic properties:
Magnetizability                         ...  NO

EPR properties:
g-Tensor (aka g-matrix)                 ...  NO
Zero-Field splitting spin-orbit         ...  NO
Zero-field splitting spin-spin          ...  NO
Hyperfine couplings                     ...  NO (   0 nuclei)
Quadrupole couplings                    ...  NO (   0 nuclei)
Contact density                         ...  NO (   0 nuclei)

NMR properties:
Chemical shifts                         ...  NO (   0 nuclei)
Spin-rotation constants                 ...  NO (   0 nuclei)
Spin-spin couplings                     ...  NO (   0 nuclei,    0 pairs)

Choice of magnetic origin               ... GIAO
Position of magnetic origin             ...     0.000000     0.000000     0.000000

Properties with geometric perturbations:
SCF Hessian                             ...  NO
IR spectrum                             ...  NO
VCD spectrum                            ...  NO
X-ray spectroscopy properties:
SCF XES/XAS/RIXS spectra                ...  NO


-------------
DIPOLE MOMENT
-------------

Method             : SCF
Type of density    : Electron Density
Multiplicity       :   1
Irrep              :   0
Energy             :  -919.5242299039052796 Eh
Relativity type    : 
Basis              : AO
                                X                 Y                 Z
Electronic contribution:      0.181132542       1.681853153       0.003745991
Nuclear contribution   :     -0.204610672      -1.688113596      -0.003876748
                        -----------------------------------------
Total Dipole Moment    :     -0.023478129      -0.006260444      -0.000130757
                        -----------------------------------------
Magnitude (a.u.)       :      0.024298823
Magnitude (Debye)      :      0.061762700



--------------------
Rotational spectrum 
--------------------
 
Rotational constants in cm-1:             0.012957             0.007238             0.004644 
Rotational constants in MHz :           388.439814           216.994058           139.221165 

Dipole components along the rotational axes: 
x,y,z [a.u.] :    -0.016305    -0.018015    -0.000113 
x,y,z [Debye]:    -0.041445    -0.045791    -0.000286 

 

Dipole moment calculation done in   0.1 sec 

Maximum memory used throughout the entire PROP-calculation: 69.9 MB

--------------------------------
SUGGESTED CITATIONS FOR THIS RUN
--------------------------------

Below you find a list of papers that are relevant to this ORCA run
We neither can nor want to force you to cite these papers, but we appreciate if you do
You receive ORCA, which is the product of decades of hard work by many enthusiastic individuals, for free
The only thing we kindly ask in return is that you cite our papers,
We deeply appreciate it, if you show your appreciation for ORCA by not just citing the generic ORCA reference.

Please note that relegating all ORCA citations to the supporting information does *not* help us.
SI sections are not indexed - citations you put there will not count into any citation statistics
But we need these citations in order to attract the funding resources that allow us to do what we are doing

Therefore, if you are a happy ORCA user, please consider citing a few of the papers listed below in the main body of your paper

In addition to the list printed below, the program has created the file compas3D_hc_c24h14_0pent_8_tz_ri.bibtex that contains the list in bibtex format
You can import this file easily into all common literature databanks and citation aid programs


List of essential papers. We consider these as the minimum necessary citations

  1. Neese,F.
     Software update: the ORCA program system, version 5.0
     WIRES Comput. Molec. Sci., 2022 12(1)e1606
     doi.org/10.1002/wcms.1606

List of papers to cite with high priority. The work reported in these papers was absolutely
necessary for this run to complete.
Our perspective: the developers of density functionals and basis sets usually get cited in chemistry papers
Good! But without the algorithms to do something with them, the functionals or basis sets would not do anything.
Hence, in our opinion, the algorithm design and method developments papers are equally worthy of getting cited

  1. Neese,F.
     An improvement of the resolution of the identity approximation for the formation of the Coulomb matrix
     J. Comp. Chem., 2003 24(14)1740-1747
     doi.org/10.1002/jcc.10318
  2. Neese,F.; Wennmohs,F.; Hansen,A.; Becker,U.
     Efficient, approximate and parallel Hartree-Fock and hybrid DFT calculations. A 'chain-of-spheres' algorithm for the Hartree-Fock exchange
     Chem. Phys., 2009 356(1-3)98-109
     doi.org/10.1016/j.chemphys.2008.10.036
  3. Kossmann,S.; Neese,F.
     Efficient Structure Optimization with Second-Order Many-Body Perturbation Theory: The RIJCOSX-MP2 Method
     J. Theo. Comp. Chem., 2010 6 2325-2338
     doi.org/10.1021/ct100199k
  4. Helmich-Paris,B.; de Souza,B.; Neese,F.; Izsák,R.
     An improved chain of spheres for exchange algorithm
     J. Chem. Phys., 2021 155 104109
     doi.org/doi: 10.1063/5.0058766.
  5. Neese,F.
     The SHARK Integral Generation and Digestion System
     J. Comp. Chem., 2022  1-16
     doi.org/10.1002/jcc.26942
  6. Caldeweyher,E.; Bannwarth,C.; Grimme,S.
     Extension of the D3 dispersion coefficient model
     J. Chem. Phys., 2017 147 034112
     doi.org/10.1063/1.4993215
  7. Caldeweyher,E.; Ehlert,S.; Hansen,A.; Neugebauer,H.; Spicher,S.; Bannwarth,C.; Grimme,S.
     A generally applicable atomic-charge dependent London dispersion correction
     J. Chem. Phys., 2019 150 154122
     doi.org/10.1063/1.5090222
  8. Caldeweyher,E.; Mewes,J.; Ehlert,S.; Grimme,S.
     Extension and evaluation of the D4 London-dispersion model for periodic systems
     Phys. Chem. Chem. Phys., 2020 22(16)8499-8512
     doi.org/10.1039/D0CP00502A
  9. Wittmann,L.; Gordiy,I.; Friede,M.; Helmich-Paris,B.; Grimme,S.; Hansen,A.; Bursch,M.
     Extension of the D3 and D4 London Dispersion Corrections to the full Actinides Series
     Phys. Chem. Chem. Phys., 2024 26(32)21379-21394
     doi.org/https://doi.org/10.1039/D4CP01514B 

List of suggested additional citations. These are papers that are important in the 'surrounding' of 
of this run, or papers that preceded the highly important papers. If you like your results we are grateful for a citation.

  1. Izsak,R.; Neese,F.
     An overlap fitted chain of spheres exchange method
     J. Chem. Phys., 2011 135 144105
     doi.org/10.1063/1.3646921
  2. Izsak,R.; Hansen,A.; Neese,F.
     The resolution of identity and chain of spheres approximations for the LPNO-CCSD singles Fock term
     Molec. Phys., 2012 110 2413-2417
     doi.org/10.1080/00268976.2012.687466
  3. Neese,F.
     The ORCA program system
     WIRES Comput. Molec. Sci., 2012 2(1)73-78
     doi.org/10.1002/wcms.81
  4. Izsak,R.; Neese,F.; Klopper,W.
     Robust fitting techniques in the chain of spheres approximation to the Fock exchange: The role of the complementary space
     J. Chem. Phys., 2013 139 
     doi.org/10.1063/1.4819264
  5. Neese,F.
     Software update: the ORCA program system, version 4.0
     WIRES Comput. Molec. Sci., 2018 8(1)1-6
     doi.org/10.1002/wcms.1327
  6. Neese,F.; Wennmohs,F.; Becker,U.; Riplinger,C.
     The ORCA quantum chemistry program package
     J. Chem. Phys., 2020 152 Art. No. L224108
     doi.org/10.1063/5.0004608

List of optional additional citations

  1. Neese,F.
     Approximate second-order SCF convergence for spin unrestricted wavefunctions
     Chem. Phys. Lett., 2000 325(1-3)93-98
     doi.org/10.1016/s0009-2614(00)00662-x

Timings for individual modules:

Sum of individual times          ...      158.085 sec (=   2.635 min)
Startup calculation              ...       24.386 sec (=   0.406 min)  15.4 %
SCF iterations                   ...       92.971 sec (=   1.550 min)  58.8 %
Property calculations            ...       16.195 sec (=   0.270 min)  10.2 %
MP2 module                       ...       24.533 sec (=   0.409 min)  15.5 %
                             ****ORCA TERMINATED NORMALLY****
TOTAL RUN TIME: 0 days 0 hours 3 minutes 5 seconds 690 msec
