
                                 *****************
                                 * O   R   C   A *
                                 *****************

                                            #,                                       
                                            ###                                      
                                            ####                                     
                                            #####                                    
                                            ######                                   
                                           ########,                                 
                                     ,,################,,,,,                         
                               ,,#################################,,                 
                          ,,##########################################,,             
                       ,#########################################, ''#####,          
                    ,#############################################,,   '####,        
                  ,##################################################,,,,####,       
                ,###########''''           ''''###############################       
              ,#####''   ,,,,##########,,,,          '''####'''          '####       
            ,##' ,,,,###########################,,,                        '##       
           ' ,,###''''                  '''############,,,                           
         ,,##''                                '''############,,,,        ,,,,,,###''
      ,#''                                            '''#######################'''  
     '                                                          ''''####''''         
             ,#######,   #######,   ,#######,      ##                                
            ,#'     '#,  ##    ##  ,#'     '#,    #''#        ,####,   ,####,        
            ##       ##  ##   ,#'  ##            #'  '#       #'       #'  '#        
            ##       ##  #######   ##           ,######,      #####,   #    #        
            '#,     ,#'  ##    ##  '#,     ,#' ,#      #,     #,   #   #,  ,#        
             '#######'   ##     ##  '#######'  #'      '#     '####' # '####'        



                #########################################################
                #                        -***-                          #
                #          Department of theory and spectroscopy        #
                #                                                       #
                #                      Frank Neese                      #
                #                                                       #
                #     Directorship, Architecture, Infrastructure        #
                #                    SHARK, DRIVERS                     #
                #        Core code/Algorithms in most modules           #
                #                                                       #
                #        Max Planck Institute fuer Kohlenforschung      #
                #                Kaiser Wilhelm Platz 1                 #
                #                 D-45470 Muelheim/Ruhr                 #
                #                      Germany                          #
                #                                                       #
                #                  All rights reserved                  #
                #                        -***-                          #
                #########################################################


                         Program Version 6.0.1  -  RELEASE   -


 With contributions from (in alphabetic order):
[Max-Planck-Institut fuer Kohlenforschung]                               
  Daniel Aravena         : Magnetic Suceptibility                        
  Michael Atanasov       : Ab Initio Ligand Field Theory (pilot matlab implementation)
  Alexander A. Auer      : GIAO ZORA, VPT2 properties, NMR spectrum      
  Ute Becker             : All parallelization in ORCA, NUMFREQ, NUMCALC 
  Giovanni Bistoni       : ED, misc. LED, open-shell LED, HFLD           
  Martin Brehm           : Molecular dynamics                            
  Dmytro Bykov           : pre 5.0 version of the SCF Hessian            
  Marcos Casanova-Páez   : Triplet and SCS-CIS(D). UHF-(DLPNO)-IP/EA/STEOM-CCSD. UHF-CVS-IP/STEOM-CCSD   
  Vijay G. Chilkuri      : MRCI spin determinant printing, contributions to CSF-ICE 
  Pauline Colinet        : FMM embedding                                 
  Dipayan Datta          : RHF DLPNO-CCSD density                        
  Achintya Kumar Dutta   : EOM-CC, STEOM-CC                              
  Nicolas Foglia         : Exact transition moments, OPA infrastructure, MCD improvements    
  Dmitry Ganyushin       : Spin-Orbit,Spin-Spin,Magnetic field MRCI      
  Miquel Garcia-Rates    : C-PCM and meta-GGA Hessian, CCSD/C-PCM, Gaussian charge scheme 
  Tiago L. C. Gouveia    : GS-ROHF, GS-ROCIS                             
  Yang Guo               : DLPNO-NEVPT2, F12-NEVPT2, CIM, IAO-localization        
  Andreas Hansen         : Spin unrestricted coupled pair/coupled cluster methods 
  Ingolf Harden          : AUTO-CI MPn and infrastructure                
  Benjamin Helmich-Paris : MC-RPA, TRAH-(SCF,CASSCF), AVAS, COSX integrals, SCF dyn. polar. 
  Lee Huntington         : MR-EOM, pCC                                   
  Robert Izsak           : Overlap fitted RIJCOSX, COSX-SCS-MP3, EOM     
  Riya Kayal             : Wick's Theorem for AUTO-CI, AUTO-CI UHF-CCSDT 
  Emily Kempfer          : AUTO-CI, RHF CISDT and CCSDT                  
  Christian Kollmar      : KDIIS, OOCD, Brueckner-CCSD(T), CCSD density, CASPT2, CASPT2-K, improved NEVPT2 
  Axel Koslowski         : Symmetry handling                             
  Simone Kossmann        : meta-GGA functionals, TD-DFT gradient, OOMP2, (MP2 Hessian; deprecated post 5.0) 
  Lucas Lang             : DCDCAS                                        
  Marvin Lechner         : AUTO-CI (C++ implementation), FIC-MRCC        
  Spencer Leger          : CASSCF response                               
  Dagmar Lenk            : GEPOL surface, SMD, ORCA-2-JSON               
  Dimitrios Liakos       : Extrapolation schemes; Compound Job, initial MDCI parallelization 
  Dimitrios Manganas     : Further ROCIS development; embedding schemes. LFT, Crystal Embedding 
  Dimitrios Pantazis     : SARC Basis sets                               
  Anastasios Papadopoulos: AUTO-CI, single reference methods and gradients 
  Taras Petrenko         : pre 6.0 DFT Hessian and TD-DFT gradient, (ASA, deprecated), ECA, 1-Electron XAS/XES, NRVS 
  Peter Pinski           : DLPNO-MP2, DLPNO-MP2 Gradient                 
  Christoph Reimann      : Effective Core Potentials                     
  Marius Retegan         : Local ZFS, SOC                                
  Christoph Riplinger    : Optimizer, TS searches, QM/MM, DLPNO-CCSD(T), (RO)-DLPNO pert. Triples 
  Michael Roemelt        : Original ROCIS implementation                 
  Masaaki Saitow         : Open-shell DLPNO-CCSD energy and density      
  Barbara Sandhoefer     : DKH picture change effects                    
  Kantharuban Sivalingam : CASSCF convergence/infrastructure, NEVPT2 and variants, FIC-MRCI 
  Bernardo de Souza      : ESD, SOC TD-DFT                               
  Georgi L. Stoychev     : AutoAux, RI-MP2 NMR, DLPNO-MP2 response, X2C  
  Van Anh Tran           : RI-MP2 g-tensors                              
  Willem Van den Heuvel  : Paramagnetic NMR                              
  Zikuan Wang            : NOTCH, Electric field optimization            
  Frank Wennmohs         : Technical directorship and infrastructure     
  Hang Xu                : AUTO-CI-Response properties                   
                                                                         
[FACCTs GmbH]                                                            
  Markus Bursch, Miquel Garcia-Rates, Christoph Riplinger, Bernardo de Souza, Georgi L. Stoychev 
                                                                 
  APM, Basis sets (HGBS, AHGBS, def-TZVP (Ac-Lr), def2-XVPD (La-Lu)), CI-OPT, improved COSX, DLPNO-Multilevel,           
  DOCKER, DRACO, updates on ESD, GOAT, IRC, LR-CPCM, MBIS, meta-GGA TD-DFT gradient, ML-optimized integration grids, 
  MM, NACMEs, nearIR, NEB, NEB-TS, NL-DFT gradient (VV10), 2- and 3-layer-ONIOM, interface openCOSMO-RS, QMMM,   
  Crystal-QMMM, SF, symmetry and pop. for TD-DFT, r2SCAN hybrids, SOLVATOR                                   
                                                                         
[Other institutions]                                                     
  V. Asgeirsson          : NEB                                           
  Christoph Bannwarth    : sTDA-DFT, sTD-DFT, PBEh-3c, B97-3c, D3        
  Sebastian Ehlert       : rSCAN, r2SCAN, r2SCAN-3c, D4, dhf basis sets  
  Marvin Friede          : D4 for Fr, Ra, Ac-Lr                          
  Lars Goerigk           : TD-DFT with DH, B97 family of functionals     
  Stefan Grimme          : VdW corrections, initial TS optimization, DFT functionals, gCP, sTDA/sTD-DF 
  Waldemar Hujo          : DFT-NL                                        
  H. Jonsson             : NEB                                           
  Holger Kruse           : gCP                                           
  Marcel Mueller         : wB97X-3c, vDZP basis set                      
  Hagen Neugebauer       : wr2SCAN                                       
  Tobias Risthaus        : range-separated hybrid DFT                    
  Lukas Wittmann         : regularized MP2, r2SCAN double-hybrids, wr2SCAN        
                                                                         
We gratefully acknowledge several colleagues who have allowed us to      
interface, adapt or use parts of their codes:                            
  Ed Valeev, F. Pavosevic, A. Kumar             : LibInt (2-el integral package), F12 methods 
  Garnet Chan, S. Sharma, J. Yang, R. Olivares  : DMRG                   
  Ulf Ekstrom                                   : XCFun DFT Library      
  Mihaly Kallay                                 : mrcc  (arbitrary order and MRCC methods)
  Frank Weinhold                                : gennbo (NPA and NBO analysis)           
  Simon Mueller                                 : openCOSMO-RS                            
  Christopher J. Cramer and Donald G. Truhlar   : smd solvation model                     
  S Lehtola, MJT Oliveira, MAL Marques          : LibXC Library                           
  Liviu Ungur et al                             : ANISO software                          


 Your calculation uses the libint2 library for the computation of 2-el integrals
 For citations please refer to: http://libint.valeyev.net

 Your ORCA version has been built with support for libXC version: 6.2.2
 For citations please refer to: https://libxc.gitlab.io

 This ORCA versions uses:
   CBLAS   interface :  Fast vector & matrix operations
   LAPACKE interface :  Fast linear algebra routines
   SCALAPACK package :  Parallel linear algebra routines
   Shared memory     :  Shared parallel matrices
   BLAS/LAPACK       :  OpenBLAS 0.3.27  USE64BITINT DYNAMIC_ARCH NO_AFFINITY SapphireRapids SINGLE_THREADED
        Core in use  :  SapphireRapids
   Copyright (c) 2011-2014, The OpenBLAS Project


Warning! Weird basis set assignment to AuxJK basis!


***************************************
The coordinates will be read from file: /g/data/kx58/rs2200/dhdft/inputs/compas3D-xyzs/hc_c32h16_0pent_3.xyz
***************************************


Your calculation utilizes the atom-pairwise dispersion correction
based on EEQ partial charges (D4)


================================================================================

----- Orbital basis set information -----
Your calculation utilizes the basis: def2-QZVPP
   F. Weigend and R. Ahlrichs, Phys. Chem. Chem. Phys. 7, 3297 (2005).

----- AuxC basis set information -----
Your calculation utilizes the auxiliary basis: def2-QZVPP/C
  H-La, Hf-Rn : A. Hellweg, C. Hattig, S. Hofener and W. Klopper, Theor. Chem. Acc. 117, 587 (2007).
        Ce-Lu : J. Chmela and M. E. Harding, Mol. Phys. (2018).

----- AuxJK basis set information -----
Your calculation utilizes the auxiliary basis: def2-QZVPP/C
  H-La, Hf-Rn : A. Hellweg, C. Hattig, S. Hofener and W. Klopper, Theor. Chem. Acc. 117, 587 (2007).
        Ce-Lu : J. Chmela and M. E. Harding, Mol. Phys. (2018).

================================================================================
                                        WARNINGS
                       Please study these warnings very carefully!
================================================================================


WARNING: No MP2 level density has been requested!
         To calculate MP2 level properties use
         %mp2 Density relaxed end
         or
         %mp2 Density unrelaxed end
         Otherwise for double-hybrid DFT only the energy is correct!

================================================================================
                                       INPUT FILE
================================================================================
NAME = compas3D_hc_c32h16_0pent_3_qz_riri.inp
|  1> ! RKS revDSD-PBEP86-D4/2021 defgrid3  RIJK NOPOP NoFrozencore NoUseSym
|  2> 
|  3> %basis
|  4> Basis "def2-QZVPP"
|  5> AuxJK "def2-QZVPP/C"
|  6> AuxC "def2-QZVPP/C"
|  7> end
|  8> 
|  9> %method
| 10> ScalHFX 0.69
| 11> ScalDFX 0.31
| 12> ScalDFC 0.4038
| 13> ScalLDAC 0.4038
| 14> 
| 15> D4S6 0.4612
| 16> D4S8 0.0
| 17> D4A1 0.44
| 18> D4A2 3.60
| 19> end
| 20> 
| 21> %mp2
| 22> PS 0.5979
| 23> PT 0.0571
| 24> 
| 25> end
| 26> 
| 27> %pal
| 28> nprocs 104
| 29> end
| 30> 
| 31> *XYZFILE 0 1 /g/data/kx58/rs2200/dhdft/inputs/compas3D-xyzs/hc_c32h16_0pent_3.xyz
| 32> 
| 33>                          ****END OF INPUT****
================================================================================

                       ****************************
                       * Single Point Calculation *
                       ****************************

---------------------------------
CARTESIAN COORDINATES (ANGSTROEM)
---------------------------------
  C      0.619558   -0.821210   -0.006191
  C     -0.546798   -0.036261   -0.004407
  C     -0.457893    1.420701    0.000954
  C      0.806113    2.048752   -0.003928
  C      2.017581    1.278644   -0.011854
  C      1.928428   -0.193976   -0.002331
  C      0.523659   -2.252836   -0.008776
  C     -0.732454   -2.834637   -0.015881
  C     -1.910470   -2.073958   -0.016210
  C     -1.824944   -0.651158   -0.007248
  C     -3.031679    0.121134   -0.002288
  C     -2.937274    1.591079    0.012835
  C     -1.635304    2.199954    0.009569
  C     -1.539411    3.631152    0.016346
  C     -0.283281    4.234850    0.008102
  C      0.889280    3.480004   -0.003684
  C      3.040596   -0.983487    0.011829
  C      2.989109   -2.413020    0.011736
  C      1.738217   -3.066698   -0.001985
  C     -3.184125   -2.703202   -0.024280
  C     -4.324621   -1.948726   -0.023650
  C     -4.244506   -0.541551   -0.012671
  C     -4.052275    2.401859    0.030171
  C     -3.952847    3.812446    0.039350
  C     -2.729878    4.415840    0.031060
  C      2.167742    4.108918   -0.016415
  C      3.304807    3.355177   -0.030889
  C      3.225898    1.944133   -0.029367
  C      4.177809   -3.173821    0.023047
  C      4.136773   -4.550820    0.019573
  C      2.895495   -5.205128    0.004500
  C      1.723378   -4.474961   -0.005925
  H     -0.836362   -3.918584   -0.020158
  H     -0.215470    5.325047    0.010455
  H      4.032916   -0.534496    0.023483
  H     -3.231693   -3.794116   -0.031609
  H     -5.305094   -2.428547   -0.031368
  H     -5.175201    0.023690   -0.013082
  H     -5.047796    1.960702    0.037398
  H     -4.865524    4.411179    0.052536
  H     -2.638569    5.503884    0.036471
  H      2.214886    5.199781   -0.016262
  H      4.285789    3.833902   -0.043722
  H      4.159167    1.383491   -0.043378
  H      5.136053   -2.649403    0.034103
  H      5.062051   -5.130060    0.028168
  H      2.853461   -6.296031    0.001155
  H      0.775706   -5.011632   -0.017281

----------------------------
CARTESIAN COORDINATES (A.U.)
----------------------------
  NO LB      ZA    FRAG     MASS         X           Y           Z
   0 C     6.0000    0    12.011    1.170794   -1.551861   -0.011700
   1 C     6.0000    0    12.011   -1.033299   -0.068524   -0.008329
   2 C     6.0000    0    12.011   -0.865292    2.684737    0.001803
   3 C     6.0000    0    12.011    1.523334    3.871580   -0.007422
   4 C     6.0000    0    12.011    3.812676    2.416286   -0.022400
   5 C     6.0000    0    12.011    3.644200   -0.366561   -0.004406
   6 C     6.0000    0    12.011    0.989572   -4.257243   -0.016583
   7 C     6.0000    0    12.011   -1.384138   -5.356687   -0.030011
   8 C     6.0000    0    12.011   -3.610265   -3.919212   -0.030633
   9 C     6.0000    0    12.011   -3.448645   -1.230511   -0.013696
  10 C     6.0000    0    12.011   -5.729043    0.228910   -0.004324
  11 C     6.0000    0    12.011   -5.550644    3.006704    0.024254
  12 C     6.0000    0    12.011   -3.090277    4.157310    0.018083
  13 C     6.0000    0    12.011   -2.909064    6.861882    0.030890
  14 C     6.0000    0    12.011   -0.535323    8.002707    0.015310
  15 C     6.0000    0    12.011    1.680496    6.576254   -0.006962
  16 C     6.0000    0    12.011    5.745893   -1.858521    0.022353
  17 C     6.0000    0    12.011    5.648598   -4.559947    0.022178
  18 C     6.0000    0    12.011    3.284754   -5.795219   -0.003752
  19 C     6.0000    0    12.011   -6.017125   -5.108312   -0.045883
  20 C     6.0000    0    12.011   -8.172349   -3.682559   -0.044691
  21 C     6.0000    0    12.011   -8.020954   -1.023384   -0.023944
  22 C     6.0000    0    12.011   -7.657691    4.538856    0.057014
  23 C     6.0000    0    12.011   -7.469797    7.204480    0.074360
  24 C     6.0000    0    12.011   -5.158722    8.344727    0.058695
  25 C     6.0000    0    12.011    4.096438    7.764731   -0.031021
  26 C     6.0000    0    12.011    6.245180    6.340366   -0.058372
  27 C     6.0000    0    12.011    6.096064    3.673878   -0.055495
  28 C     6.0000    0    12.011    7.894915   -5.997653    0.043553
  29 C     6.0000    0    12.011    7.817367   -8.599803    0.036988
  30 C     6.0000    0    12.011    5.471692   -9.836266    0.008503
  31 C     6.0000    0    12.011    3.256712   -8.456451   -0.011196
  32 H     1.0000    0     1.008   -1.580496   -7.405050   -0.038094
  33 H     1.0000    0     1.008   -0.407179   10.062881    0.019757
  34 H     1.0000    0     1.008    7.621106   -1.010050    0.044376
  35 H     1.0000    0     1.008   -6.107015   -7.169840   -0.059732
  36 H     1.0000    0     1.008  -10.025175   -4.589289   -0.059277
  37 H     1.0000    0     1.008   -9.779713    0.044767   -0.024722
  38 H     1.0000    0     1.008   -9.538951    3.705190    0.070672
  39 H     1.0000    0     1.008   -9.194508    8.335920    0.099279
  40 H     1.0000    0     1.008   -4.986174   10.400833    0.068919
  41 H     1.0000    0     1.008    4.185528    9.826162   -0.030732
  42 H     1.0000    0     1.008    8.098967    7.245025   -0.082622
  43 H     1.0000    0     1.008    7.859687    2.614420   -0.081972
  44 H     1.0000    0     1.008    9.705734   -5.006646    0.064445
  45 H     1.0000    0     1.008    9.565889   -9.694409    0.053231
  46 H     1.0000    0     1.008    5.392260  -11.897775    0.002184
  47 H     1.0000    0     1.008    1.465872   -9.470612   -0.032656

--------------------------------
INTERNAL COORDINATES (ANGSTROEM)
--------------------------------
 C      0   0   0     0.000000000000     0.00000000     0.00000000
 C      1   0   0     1.405892478849     0.00000000     0.00000000
 C      2   1   0     1.459682441102   120.44837976     0.00000000
 C      3   2   1     1.411447122590   119.91218916     0.38905879
 C      4   3   2     1.435542709836   121.13563798   359.89307885
 C      1   2   3     1.451405300329   120.45480893     0.00000000
 C      1   2   3     1.434837079391   120.10803664   179.87574843
 C      7   1   2     1.384327652738   118.68483130     0.30300303
 C      8   7   1     1.402267618113   122.29568375   359.78670515
 C      2   1   3     1.418366716714   120.36797347   180.02578893
 C     10   2   1     1.432713785042   121.68908522   179.84758297
 C     11  10   2     1.473050962314   118.94442402   359.69476858
 C      3   2   1     1.411951217782   120.00672030   180.32153922
 C     13   3   2     1.434422910729   119.66570135   179.92870129
 C     14  13   3     1.393693415495   119.49947660     0.29447566
 C     15  14  13     1.394571917155   121.56070077   359.85726997
 C      6   1   2     1.363981850362   119.02505035   179.23033977
 C     17   6   1     1.430459778339   123.30559591     0.55107701
 C     18  17   6     1.411458325997   119.65136849   359.92465849
 C      9   8   7     1.420637688572   120.85653062   179.96831471
 C     20   9   8     1.367466335228   120.22181829   179.95862466
 C     11  10   2     1.382103210291   118.72650750   179.65775052
 C     12  11  10     1.378728622825   122.35228081   180.57890536
 C     23  12  11     1.414117171876   121.99295754   180.25151133
 C     24  23  12     1.363746295821   120.28902270     0.00000000
 C     16  15  14     1.424837062951   121.03667599   179.79422545
 C     26  16  15     1.364277276742   120.26934162   180.14794592
 C      5   4   3     1.379569794818   118.71411472   179.38435166
 C     18  17   6     1.411365887506   120.55659044   179.82125545
 C     29  18  17     1.377614230352   120.91085313   180.16793927
 C     30  29  18     1.403252097066   119.50161931     0.00000000
 C     31  30  29     1.380981619222   120.28695424   359.95918103
 H      8   7   1     1.088924198513   120.32875016   179.86803694
 H     15  14  13     1.092306626854   119.22679054   179.82828263
 H     17   6   1     1.089232639188   120.28814648   180.51832823
 H     20   9   8     1.091975225812   118.78948323   359.91892435
 H     21  20   9     1.091611354415   120.43691905   179.90667907
 H     22  11  10     1.088894564200   120.07552699   180.23785004
 H     23  12  11     1.088913272077   120.07902609     0.26216297
 H     24  23  12     1.091620017602   119.23574748   179.96787118
 H     25  24  23     1.091882279955   121.05493735   179.90699329
 H     26  16  15     1.091880608213   118.66730878     0.03198954
 H     27  26  16     1.091635622940   120.45168019   179.81402120
 H     28   5   4     1.088809403370   120.16685302   180.46782507
 H     29  18  17     1.092414557710   118.69172336     0.13431859
 H     30  29  18     1.091665125994   120.33783504   179.98553780
 H     31  30  29     1.091718101430   120.00153570   179.97045288
 H     32  31  30     1.089140335858   118.55877991   180.01539241

---------------------------
INTERNAL COORDINATES (A.U.)
---------------------------
 C      0   0   0     0.000000000000     0.00000000     0.00000000
 C      1   0   0     2.656751758764     0.00000000     0.00000000
 C      2   1   0     2.758400056176   120.44837976     0.00000000
 C      3   2   1     2.667248514206   119.91218916     0.38905879
 C      4   3   2     2.712782575138   121.13563798   359.89307885
 C      1   2   3     2.742758526944   120.45480893     0.00000000
 C      1   2   3     2.711449126845   120.10803664   179.87574843
 C      7   1   2     2.616000143288   118.68483130     0.30300303
 C      8   7   1     2.649901764699   122.29568375   359.78670515
 C      2   1   3     2.680324652059   120.36797347   180.02578893
 C     10   2   1     2.707436682022   121.68908522   179.84758297
 C     11  10   2     2.783662900083   118.94442402   359.69476858
 C      3   2   1     2.668201116064   120.00672030   180.32153922
 C     13   3   2     2.710666461499   119.66570135   179.92870129
 C     14  13   3     2.633698869935   119.49947660     0.29447566
 C     15  14  13     2.635358997481   121.56070077   359.85726997
 C      6   1   2     2.577552148824   119.02505035   179.23033977
 C     17   6   1     2.703177226651   123.30559591     0.55107701
 C     18  17   6     2.667269685577   119.65136849   359.92465849
 C      9   8   7     2.684616166929   120.85653062   179.96831471
 C     20   9   8     2.584136870938   120.22181829   179.95862466
 C     11  10   2     2.611796556264   118.72650750   179.65775052
 C     12  11  10     2.605419510138   122.35228081   180.57890536
 C     23  12  11     2.672294176121   121.99295754   180.25151133
 C     24  23  12     2.577107015251   120.28902270     0.00000000
 C     16  15  14     2.692551834439   121.03667599   179.79422545
 C     26  16  15     2.578110423774   120.26934162   180.14794592
 C      5   4   3     2.607009094836   118.71411472   179.38435166
 C     18  17   6     2.667095002145   120.55659044   179.82125545
 C     29  18  17     2.603313613558   120.91085313   180.16793927
 C     30  29  18     2.651762160305   119.50161931     0.00000000
 C     31  30  29     2.609677056309   120.28695424   359.95918103
 H      8   7   1     2.057768515789   120.32875016   179.86803694
 H     15  14  13     2.064160379022   119.22679054   179.82828263
 H     17   6   1     2.058351384193   120.28814648   180.51832823
 H     20   9   8     2.063534121812   118.78948323   359.91892435
 H     21  20   9     2.062846504523   120.43691905   179.90667907
 H     22  11  10     2.057712515054   120.07552699   180.23785004
 H     23  12  11     2.057747867818   120.07902609     0.26216297
 H     24  23  12     2.062862875574   119.23574748   179.96787118
 H     25  24  23     2.063358479596   121.05493735   179.90699329
 H     26  16  15     2.063355320462   118.66730878     0.03198954
 H     27  26  16     2.062892365389   120.45168019   179.81402120
 H     28   5   4     2.057551584408   120.16685302   180.46782507
 H     29  18  17     2.064364338781   118.69172336     0.13431859
 H     30  29  18     2.062948118081   120.33783504   179.98553780
 H     31  30  29     2.063048227148   120.00153570   179.97045288
 H     32  31  30     2.058176956179   118.55877991   180.01539241

---------------------
BASIS SET INFORMATION
---------------------
There are 2 groups of distinct atoms

 Group   1 Type C   : 15s8p3d2f1g contracted to 7s4p3d2f1g pattern {8211111/5111/111/11/1}
 Group   2 Type H   : 7s3p2d1f contracted to 4s3p2d1f pattern {4111/111/11/1}

Atom   0C    basis set group =>   1
Atom   1C    basis set group =>   1
Atom   2C    basis set group =>   1
Atom   3C    basis set group =>   1
Atom   4C    basis set group =>   1
Atom   5C    basis set group =>   1
Atom   6C    basis set group =>   1
Atom   7C    basis set group =>   1
Atom   8C    basis set group =>   1
Atom   9C    basis set group =>   1
Atom  10C    basis set group =>   1
Atom  11C    basis set group =>   1
Atom  12C    basis set group =>   1
Atom  13C    basis set group =>   1
Atom  14C    basis set group =>   1
Atom  15C    basis set group =>   1
Atom  16C    basis set group =>   1
Atom  17C    basis set group =>   1
Atom  18C    basis set group =>   1
Atom  19C    basis set group =>   1
Atom  20C    basis set group =>   1
Atom  21C    basis set group =>   1
Atom  22C    basis set group =>   1
Atom  23C    basis set group =>   1
Atom  24C    basis set group =>   1
Atom  25C    basis set group =>   1
Atom  26C    basis set group =>   1
Atom  27C    basis set group =>   1
Atom  28C    basis set group =>   1
Atom  29C    basis set group =>   1
Atom  30C    basis set group =>   1
Atom  31C    basis set group =>   1
Atom  32H    basis set group =>   2
Atom  33H    basis set group =>   2
Atom  34H    basis set group =>   2
Atom  35H    basis set group =>   2
Atom  36H    basis set group =>   2
Atom  37H    basis set group =>   2
Atom  38H    basis set group =>   2
Atom  39H    basis set group =>   2
Atom  40H    basis set group =>   2
Atom  41H    basis set group =>   2
Atom  42H    basis set group =>   2
Atom  43H    basis set group =>   2
Atom  44H    basis set group =>   2
Atom  45H    basis set group =>   2
Atom  46H    basis set group =>   2
Atom  47H    basis set group =>   2
---------------------------------
AUXILIARY/C BASIS SET INFORMATION
---------------------------------
There are 2 groups of distinct atoms

 Group   1 Type C   : 9s8p7d5f3g1h contracted to 9s8p7d5f3g1h pattern {111111111/11111111/1111111/11111/111/1}
 Group   2 Type H   : 6s4p3d2f1g contracted to 6s4p3d2f1g pattern {111111/1111/111/11/1}

Atom   0C    basis set group =>   1
Atom   1C    basis set group =>   1
Atom   2C    basis set group =>   1
Atom   3C    basis set group =>   1
Atom   4C    basis set group =>   1
Atom   5C    basis set group =>   1
Atom   6C    basis set group =>   1
Atom   7C    basis set group =>   1
Atom   8C    basis set group =>   1
Atom   9C    basis set group =>   1
Atom  10C    basis set group =>   1
Atom  11C    basis set group =>   1
Atom  12C    basis set group =>   1
Atom  13C    basis set group =>   1
Atom  14C    basis set group =>   1
Atom  15C    basis set group =>   1
Atom  16C    basis set group =>   1
Atom  17C    basis set group =>   1
Atom  18C    basis set group =>   1
Atom  19C    basis set group =>   1
Atom  20C    basis set group =>   1
Atom  21C    basis set group =>   1
Atom  22C    basis set group =>   1
Atom  23C    basis set group =>   1
Atom  24C    basis set group =>   1
Atom  25C    basis set group =>   1
Atom  26C    basis set group =>   1
Atom  27C    basis set group =>   1
Atom  28C    basis set group =>   1
Atom  29C    basis set group =>   1
Atom  30C    basis set group =>   1
Atom  31C    basis set group =>   1
Atom  32H    basis set group =>   2
Atom  33H    basis set group =>   2
Atom  34H    basis set group =>   2
Atom  35H    basis set group =>   2
Atom  36H    basis set group =>   2
Atom  37H    basis set group =>   2
Atom  38H    basis set group =>   2
Atom  39H    basis set group =>   2
Atom  40H    basis set group =>   2
Atom  41H    basis set group =>   2
Atom  42H    basis set group =>   2
Atom  43H    basis set group =>   2
Atom  44H    basis set group =>   2
Atom  45H    basis set group =>   2
Atom  46H    basis set group =>   2
Atom  47H    basis set group =>   2
----------------------------------
AUXILIARY/JK BASIS SET INFORMATION
----------------------------------
There are 2 groups of distinct atoms

 Group   1 Type C   : 9s8p7d5f3g1h contracted to 9s8p7d5f3g1h pattern {111111111/11111111/1111111/11111/111/1}
 Group   2 Type H   : 6s4p3d2f1g contracted to 6s4p3d2f1g pattern {111111/1111/111/11/1}

Atom   0C    basis set group =>   1
Atom   1C    basis set group =>   1
Atom   2C    basis set group =>   1
Atom   3C    basis set group =>   1
Atom   4C    basis set group =>   1
Atom   5C    basis set group =>   1
Atom   6C    basis set group =>   1
Atom   7C    basis set group =>   1
Atom   8C    basis set group =>   1
Atom   9C    basis set group =>   1
Atom  10C    basis set group =>   1
Atom  11C    basis set group =>   1
Atom  12C    basis set group =>   1
Atom  13C    basis set group =>   1
Atom  14C    basis set group =>   1
Atom  15C    basis set group =>   1
Atom  16C    basis set group =>   1
Atom  17C    basis set group =>   1
Atom  18C    basis set group =>   1
Atom  19C    basis set group =>   1
Atom  20C    basis set group =>   1
Atom  21C    basis set group =>   1
Atom  22C    basis set group =>   1
Atom  23C    basis set group =>   1
Atom  24C    basis set group =>   1
Atom  25C    basis set group =>   1
Atom  26C    basis set group =>   1
Atom  27C    basis set group =>   1
Atom  28C    basis set group =>   1
Atom  29C    basis set group =>   1
Atom  30C    basis set group =>   1
Atom  31C    basis set group =>   1
Atom  32H    basis set group =>   2
Atom  33H    basis set group =>   2
Atom  34H    basis set group =>   2
Atom  35H    basis set group =>   2
Atom  36H    basis set group =>   2
Atom  37H    basis set group =>   2
Atom  38H    basis set group =>   2
Atom  39H    basis set group =>   2
Atom  40H    basis set group =>   2
Atom  41H    basis set group =>   2
Atom  42H    basis set group =>   2
Atom  43H    basis set group =>   2
Atom  44H    basis set group =>   2
Atom  45H    basis set group =>   2
Atom  46H    basis set group =>   2
Atom  47H    basis set group =>   2


           ************************************************************
           *        Program running with 104 parallel MPI-processes   *
           *              working on a common directory               *
           ************************************************************
------------------------------------------------------------------------------
                             ORCA STARTUP CALCULATIONS
                           -- RI-GTO INTEGRALS CHOSEN --
------------------------------------------------------------------------------
------------------------------------------------------------------------------
                   ___                                                        
                  /   \      - P O W E R E D   B Y -                         
                 /     \                                                     
                 |  |  |   _    _      __       _____    __    __             
                 |  |  |  | |  | |    /  \     |  _  \  |  |  /  |          
                  \  \/   | |  | |   /    \    | | | |  |  | /  /          
                 / \  \   | |__| |  /  /\  \   | |_| |  |  |/  /          
                |  |  |   |  __  | /  /__\  \  |    /   |      \           
                |  |  |   | |  | | |   __   |  |    \   |  |\   \          
                \     /   | |  | | |  |  |  |  | |\  \  |  | \   \       
                 \___/    |_|  |_| |__|  |__|  |_| \__\ |__|  \__/        
                                                                              
                      - O R C A' S   B I G   F R I E N D -                    
                                      &                                       
                       - I N T E G R A L  F E E D E R -                       
                                                                              
 v1 FN, 2020, v2 2021, v3 2022-2024                                           
------------------------------------------------------------------------------


----------------------
SHARK INTEGRAL PACKAGE
----------------------

Number of atoms                             ...     48
Number of basis functions                   ...   2304
Number of shells                            ...    704
Maximum angular momentum                    ...      4
Integral batch strategy                     ... SHARK/LIBINT Hybrid
RI-J (if used) integral strategy            ... SPLIT-RIJ (Revised 2003 algorithm where possible)
Printlevel                                  ...      1
Contraction scheme used                     ... SEGMENTED contraction
Prescreening option                         ... SCHWARTZ
   Thresh                                   ... 1.000e-10
   Tcut                                     ... 1.000e-11
   Tpresel                                  ... 1.000e-11 
Coulomb Range Separation                    ... NOT USED
Exchange Range Separation                   ... NOT USED
Multipole approximations                    ... NOT USED
Finite Nucleus Model                        ... NOT USED
CABS basis                                  ... NOT available
Auxiliary Coulomb fitting basis             ... NOT available
Auxiliary J/K fitting basis                 ... AVAILABLE
   # of basis functions in Aux-JK           ...   5408
   # of shells in Aux-JK                    ...   1312
   Maximum angular momentum in Aux-JK       ...      5
Auxiliary Correlation fitting basis         ... AVAILABLE
   # of basis functions in Aux-C            ...   5408
   # of shells in Aux-C                     ...   1312
   Maximum angular momentum in Aux-C        ...      5
Auxiliary 'external' fitting basis          ... NOT available

Checking pre-screening integrals            ... done (  0.0 sec) Dimension = 704
Check shell pair data                       ... done (  0.0 sec)
Shell pair information
Shell pair cut-off parameter TPreSel        ...   1.0e-11
Total number of shell pairs                 ...    248160
Shell pairs after pre-screening             ...    133210
Total number of primitive shell pairs       ...    647160
Primitive shell pairs kept                  ...    233669
          la=0 lb=0:  19984 shell pairs
          la=1 lb=0:  30383 shell pairs
          la=1 lb=1:  10708 shell pairs
          la=2 lb=0:  17864 shell pairs
          la=2 lb=1:  13723 shell pairs
          la=2 lb=2:   4256 shell pairs
          la=3 lb=0:  10738 shell pairs
          la=3 lb=1:   8178 shell pairs
          la=3 lb=2:   4864 shell pairs
          la=3 lb=3:   1441 shell pairs
          la=4 lb=0:   4311 shell pairs
          la=4 lb=1:   3361 shell pairs
          la=4 lb=2:   1983 shell pairs
          la=4 lb=3:   1158 shell pairs
          la=4 lb=4:    258 shell pairs

Calculating one electron integrals          ... done (  0.8 sec)
Calculating RI/JK V-Matrix + Cholesky decomp... done (  1.2 sec)
Calculating RI/C V-Matrix + Cholesky decomp.... done (  1.1 sec)
Calculating Nuclear repulsion               ... done (  0.0 sec) ENN=   2830.947795139462 Eh

Diagonalization of the overlap matrix:
Smallest eigenvalue                        ... 4.703e-08
Time for diagonalization                   ...    0.856 sec
Threshold for overlap eigenvalues          ... 1.000e-07
Number of eigenvalues below threshold      ... 2
Smallest eigenvalue above threshold        ... 6.619e-07

IMPORTANT:
Smallest eigenvalue of S below the DiffSThresh (1.000e-06) while
Thresh>1e-12 and/or TCut>1e-13! In order to avoid SCF convergence issues,
Thresh will be set to at least 1e-12 and TCut to at least 1e-13.
This can be turned off by adding %SCF DiffSThresh -1 END to the input.

Time for construction of square roots      ...    0.611 sec
Total time needed                          ...    1.529 sec

-------------------
DFT GRID GENERATION
-------------------

General Integration Accuracy     IntAcc      ... 4.959
Radial Grid Type                 RadialGrid  ... OptM3 with GC (2021)
Angular Grid (max. ang.)         AngularGrid ... 6 (Lebedev-590)
Angular grid pruning method      GridPruning ... 4 (adaptive)
Weight generation scheme         WeightScheme... mBecke (2022)
Basis function cutoff            BFCut       ... 1.0000e-10
Integration weight cutoff        WCut        ... 1.0000e-14
Partially contracted basis set               ... off
Rotationally invariant grid construction     ... off
Angular grids for H and He will be reduced by one unit
Diffuse basis detected: some atoms will have their outermost
                        angular grid increased by 1.

Total number of grid points                  ...   598123
Total number of batches                      ...     9373
Average number of points per batch           ...       63
Average number of grid points per atom       ...    12461
Initializing property integral containers    ... done (  0.0 sec)

SHARK setup successfully completed in  12.8 seconds

Maximum memory used throughout the entire STARTUP-calculation: 267.1 MB


           ************************************************************
           *        Program running with 104 parallel MPI-processes   *
           *              working on a common directory               *
           ************************************************************
-------------------------------------------------------------------------------
                                 ORCA GUESS
                   Start orbitals & Density for SCF / CASSCF
-------------------------------------------------------------------------------

------------
SCF SETTINGS
------------
Hamiltonian:
 Density Functional     Method          .... DFT(GTOs)
 Exchange Functional    Exchange        .... PBE
   PBE kappa parameter   XKappa         ....  0.804000
   PBE mue parameter    XMuePBE         ....  0.219520
 Correlation Functional Correlation     .... P86
 LDA part of GGA corr.  LDAOpt          .... VWN-5
 Gradients option       PostSCFGGA      .... off
 Hybrid DFT is turned on
   Fraction HF Exchange ScalHFX         ....  0.690000
   Scaling of DF-GGA-X  ScalDFX         ....  0.310000
   Scaling of DF-GGA-C  ScalDFC         ....  0.403800
   Scaling of DF-LDA-C  ScalLDAC        ....  0.403800
   Perturbative correction              ....  1.000000
 RI-approximation to the Coulomb term is turned on
   Number of AuxJK basis functions      .... 5408
   RI-JK (J+K treated both via RI)      .... on


General Settings:
 Integral files         IntName         .... compas3D_hc_c32h16_0pent_3_qz_riri
 Hartree-Fock type      HFTyp           .... RHF
 Total Charge           Charge          ....    0
 Multiplicity           Mult            ....    1
 Number of Electrons    NEL             ....  208
 Basis Dimension        Dim             .... 2304
 Nuclear Repulsion      ENuc            ....   2830.9477951395 Eh

Convergence Acceleration:
 AO-DIIS                CNVDIIS         .... on
   Start iteration      DIISMaxIt       ....    12
   Startup error        DIISStart       ....  0.200000
   # of expansion vecs  DIISMaxEq       ....     5
   Bias factor          DIISBfac        ....   1.050
   Max. coefficient     DIISMaxC        ....  10.000
 MO-DIIS                CNVKDIIS        .... off
 Trust-Rad. Augm. Hess. CNVTRAH         .... auto
   Auto Start mean grad. ratio tolernc. ....  1.125000
   Auto Start start iteration           ....    50
   Auto Start num. interpolation iter.  ....    10
   Max. Number of Micro iterations      ....    24
   Max. Number of Macro iterations      .... Maxiter - #DIIS iter
   Number of Davidson start vectors     ....     2
   Converg. threshold    (grad. norm)   ....   5.000e-05
   Grad. Scal. Fac. for Micro threshold ....   0.100
   Minimum threshold for Micro iter.    ....   1.000e-02
   NR start threshold (gradient norm)   ....   1.000e-04
   Initial trust radius                 ....   0.400
   Minimum AH scaling param. (alpha)    ....   1.000
   Maximum AH scaling param. (alpha)    .... 1000.000
   Quad. conv. algorithm                .... NR
   White noise on init. David. guess    .... on
   Maximum white noise                  ....   0.010
   Pseudo random numbers                .... off
   Inactive MOs                         .... canonical
   Orbital update algorithm             .... Taylor
   Preconditioner                       .... Diag
   Full preconditioner red. dimension   ....   250
 SOSCF                  CNVSOSCF        .... on
   Start iteration      SOSCFMaxIt      ....   150
   Startup grad/error   SOSCFStart      ....  0.003300
   Hessian update       SOSCFHessUp     .... L-BFGS
 Level Shifting         CNVShift        .... on
   Level shift para.    LevelShift      ....    0.2500
   Turn off err/grad.   ShiftErr        ....    0.0010
 Zerner damping         CNVZerner       .... off
 Static damping         CNVDamp         .... on
   Fraction old density DampFac         ....    0.7000
   Max. Damping (<1)    DampMax         ....    0.9800
   Min. Damping (>=0)   DampMin         ....    0.0000
   Turn off err/grad.   DampErr         ....    0.1000

SCF Procedure:
 Maximum # iterations   MaxIter         ....   125
 SCF integral mode      SCFMode         .... Direct
   Integral package                     .... SHARK and LIBINT hybrid scheme
 Reset frequency        DirectResetFreq ....    20
 Integral Threshold     Thresh          ....  1.000e-12 Eh
 Primitive CutOff       TCut            ....  1.000e-13 Eh

Convergence Tolerance:
 Convergence Check Mode ConvCheckMode   .... Total+1el-Energy
 Convergence forced     ConvForced      .... 0
 Energy Change          TolE            ....  1.000e-06 Eh
 1-El. energy change                    ....  1.000e-03 Eh
 Orbital Gradient       TolG            ....  5.000e-05
 Orbital Rotation angle TolX            ....  5.000e-05
 DIIS Error             TolErr          ....  1.000e-06

------------------------------
INITIAL GUESS: MODEL POTENTIAL
------------------------------
Loading Hartree-Fock densities                     ... done
Calculating cut-offs                               ... done
Initializing the effective Hamiltonian             ... done
Setting up the integral package (SHARK)            ... done
Starting the Coulomb interaction                   ... done (   0.5 sec)
Making the grid                                    ... done (   0.4 sec)
Mapping shells                                     ... done
Starting the XC term evaluation                    ... done (   0.2 sec)
  promolecular density results
     # of electrons  =    207.972164599
     EX              =   -168.541276559
     EC              =      0.259545415
     EX+EC           =   -168.281731144
Transforming the Hamiltonian                       ... done (   0.6 sec)
Diagonalizing the Hamiltonian                      ... done (   0.6 sec)
Back transforming the eigenvectors                 ... done (   0.3 sec)
Now organizing SCF variables                       ... done
                      ------------------
                      INITIAL GUESS DONE (   3.4 sec)
                      ------------------
             **** ENERGY FILE WAS UPDATED (compas3D_hc_c32h16_0pent_3_qz_riri.en.tmp) ****
Finished Guess after  20.8 sec
Maximum memory used throughout the entire GUESS-calculation: 297.0 MB


           ************************************************************
           *        Program running with 104 parallel MPI-processes   *
           *              working on a common directory               *
           ************************************************************

-------------------------------------------------------------------------------------------
                                      ORCA LEAN-SCF
                              memory conserving SCF solver
-------------------------------------------------------------------------------------------

----------------------------------------D-I-I-S--------------------------------------------
Iteration    Energy (Eh)           Delta-E    RMSDP     MaxDP     DIISErr   Damp  Time(sec)
-------------------------------------------------------------------------------------------
    1    -1223.8852365664624813     0.00e+00  2.58e-04  2.97e-02  1.51e-01  0.700  29.2
    2    -1223.6767677015050140     2.08e-01  2.25e-04  2.39e-02  1.33e-01  0.700  30.5
                               ***Turning on AO-DIIS***
    3    -1223.8102919669072435    -1.34e-01  1.86e-04  3.42e-02  8.01e-02  0.700  27.9
    4    -1224.0696908256313691    -2.59e-01  4.27e-04  9.00e-02  4.09e-02  0.000  27.5
    5    -1224.4907036925746979    -4.21e-01  8.80e-05  1.05e-02  3.64e-02  0.000  27.7
    6    -1224.5088009437390610    -1.81e-02  5.66e-05  8.01e-03  1.63e-02  0.000  27.9
    7    -1224.5132456410015038    -4.44e-03  2.29e-05  3.67e-03  5.33e-03  0.000  27.4
                              *** Initializing SOSCF ***
---------------------------------------S-O-S-C-F--------------------------------------
Iteration    Energy (Eh)           Delta-E    RMSDP     MaxDP     MaxGrad    Time(sec)
--------------------------------------------------------------------------------------
    8    -1224.5137887666674033    -5.43e-04  8.69e-06  1.55e-03  1.28e-03    29.9
    9    -1224.5138400622204244    -5.13e-05  5.66e-06  3.91e-04  4.50e-04    27.4
   10    -1224.5138510976285033    -1.10e-05  4.50e-06  5.97e-04  2.86e-04    27.1
   11    -1224.5138533043145799    -2.21e-06  1.70e-06  2.11e-04  1.75e-04    27.1
   12    -1224.5138543074485824    -1.00e-06  8.30e-07  9.15e-05  4.16e-05    27.1
   13    -1224.5138543724806368    -6.50e-08  2.61e-07  3.99e-05  1.66e-05    27.3
                 **** Energy Check signals convergence ****

               *****************************************************
               *                     SUCCESS                       *
               *           SCF CONVERGED AFTER  13 CYCLES          *
               *****************************************************

             **** ENERGY FILE WAS UPDATED (compas3D_hc_c32h16_0pent_3_qz_riri.en.tmp) ****

----------------
TOTAL SCF ENERGY
----------------

Total Energy       :      -1224.51385437248064 Eh          -33320.71597 eV

Components:
Nuclear Repulsion  :       2830.94779513946241 Eh           77034.00584 eV
Electronic Energy  :      -4055.46164951194305 Eh         -110354.72181 eV
One Electron Energy:      -7287.49259379486375 Eh         -198302.75499 eV
Two Electron Energy:       3232.03094428292070 Eh           87948.03319 eV

Virial components:
Potential Energy   :      -2445.42057875055525 Eh          -66543.27694 eV
Kinetic Energy     :       1220.90672437807484 Eh           33222.56097 eV
Virial Ratio       :          2.00295446811978

DFT components:
N(Alpha)           :      104.000011059359 electrons
N(Beta)            :      104.000011059359 electrons
N(Total)           :      208.000022118717 electrons
E(X)               :      -53.082635788283 Eh       
E(C)               :       -3.111446773148 Eh       
E(XC)              :      -56.194082561431 Eh       

---------------
SCF CONVERGENCE
---------------

  Last Energy change         ...    6.5032e-08  Tolerance :   1.0000e-06
  Last MAX-Density change    ...    3.9887e-05  Tolerance :   1.0000e-05
  Last RMS-Density change    ...    2.6063e-07  Tolerance :   1.0000e-06
  Last DIIS Error            ...    1.2831e-03  Tolerance :   1.0000e-06
  Last Orbital Gradient      ...    1.6566e-05  Tolerance :   5.0000e-05
  Last Orbital Rotation      ...    6.7437e-05  Tolerance :   5.0000e-05


----------------
ORBITAL ENERGIES
----------------

  NO   OCC          E(Eh)            E(eV) 
   0   2.0000     -10.841275      -295.0061 
   1   2.0000     -10.840917      -294.9964 
   2   2.0000     -10.840713      -294.9908 
   3   2.0000     -10.840568      -294.9869 
   4   2.0000     -10.840387      -294.9819 
   5   2.0000     -10.840281      -294.9790 
   6   2.0000     -10.839957      -294.9702 
   7   2.0000     -10.839667      -294.9623 
   8   2.0000     -10.838053      -294.9184 
   9   2.0000     -10.837692      -294.9086 
  10   2.0000     -10.837356      -294.8995 
  11   2.0000     -10.837169      -294.8944 
  12   2.0000     -10.835765      -294.8562 
  13   2.0000     -10.835724      -294.8550 
  14   2.0000     -10.835297      -294.8434 
  15   2.0000     -10.834628      -294.8252 
  16   2.0000     -10.827450      -294.6299 
  17   2.0000     -10.827347      -294.6271 
  18   2.0000     -10.827278      -294.6252 
  19   2.0000     -10.827098      -294.6203 
  20   2.0000     -10.827002      -294.6177 
  21   2.0000     -10.826225      -294.5965 
  22   2.0000     -10.826216      -294.5963 
  23   2.0000     -10.826190      -294.5956 
  24   2.0000     -10.826110      -294.5934 
  25   2.0000     -10.825941      -294.5888 
  26   2.0000     -10.825818      -294.5855 
  27   2.0000     -10.825791      -294.5848 
  28   2.0000     -10.825734      -294.5832 
  29   2.0000     -10.825491      -294.5766 
  30   2.0000     -10.825486      -294.5764 
  31   2.0000     -10.825400      -294.5741 
  32   2.0000      -1.103054       -30.0156 
  33   2.0000      -1.074504       -29.2388 
  34   2.0000      -1.066101       -29.0101 
  35   2.0000      -1.047352       -28.4999 
  36   2.0000      -1.021502       -27.7965 
  37   2.0000      -1.002617       -27.2826 
  38   2.0000      -0.997088       -27.1321 
  39   2.0000      -0.974805       -26.5258 
  40   2.0000      -0.955246       -25.9936 
  41   2.0000      -0.941005       -25.6060 
  42   2.0000      -0.926610       -25.2143 
  43   2.0000      -0.914873       -24.8950 
  44   2.0000      -0.906641       -24.6710 
  45   2.0000      -0.897345       -24.4180 
  46   2.0000      -0.887243       -24.1431 
  47   2.0000      -0.842045       -22.9132 
  48   2.0000      -0.813675       -22.1412 
  49   2.0000      -0.793947       -21.6044 
  50   2.0000      -0.784057       -21.3353 
  51   2.0000      -0.776620       -21.1329 
  52   2.0000      -0.767427       -20.8827 
  53   2.0000      -0.747361       -20.3367 
  54   2.0000      -0.736374       -20.0378 
  55   2.0000      -0.712040       -19.3756 
  56   2.0000      -0.698168       -18.9981 
  57   2.0000      -0.680480       -18.5168 
  58   2.0000      -0.660136       -17.9632 
  59   2.0000      -0.655766       -17.8443 
  60   2.0000      -0.651417       -17.7259 
  61   2.0000      -0.625957       -17.0332 
  62   2.0000      -0.617864       -16.8129 
  63   2.0000      -0.608029       -16.5453 
  64   2.0000      -0.592339       -16.1184 
  65   2.0000      -0.587078       -15.9752 
  66   2.0000      -0.580023       -15.7832 
  67   2.0000      -0.568807       -15.4780 
  68   2.0000      -0.565051       -15.3758 
  69   2.0000      -0.555827       -15.1248 
  70   2.0000      -0.548403       -14.9228 
  71   2.0000      -0.538882       -14.6637 
  72   2.0000      -0.530699       -14.4410 
  73   2.0000      -0.529780       -14.4161 
  74   2.0000      -0.528612       -14.3843 
  75   2.0000      -0.527510       -14.3543 
  76   2.0000      -0.519131       -14.1263 
  77   2.0000      -0.505722       -13.7614 
  78   2.0000      -0.497918       -13.5490 
  79   2.0000      -0.494994       -13.4695 
  80   2.0000      -0.494596       -13.4586 
  81   2.0000      -0.485496       -13.2110 
  82   2.0000      -0.483920       -13.1681 
  83   2.0000      -0.470281       -12.7970 
  84   2.0000      -0.463728       -12.6187 
  85   2.0000      -0.460279       -12.5248 
  86   2.0000      -0.458101       -12.4656 
  87   2.0000      -0.447499       -12.1771 
  88   2.0000      -0.440396       -11.9838 
  89   2.0000      -0.432267       -11.7626 
  90   2.0000      -0.428199       -11.6519 
  91   2.0000      -0.410043       -11.1578 
  92   2.0000      -0.409314       -11.1380 
  93   2.0000      -0.400946       -10.9103 
  94   2.0000      -0.398811       -10.8522 
  95   2.0000      -0.372635       -10.1399 
  96   2.0000      -0.348146        -9.4735 
  97   2.0000      -0.337663        -9.1883 
  98   2.0000      -0.321285        -8.7426 
  99   2.0000      -0.296725        -8.0743 
 100   2.0000      -0.290188        -7.8964 
 101   2.0000      -0.283252        -7.7077 
 102   2.0000      -0.267780        -7.2867 
 103   2.0000      -0.200441        -5.4543 
 104   0.0000      -0.041946        -1.1414 
 105   0.0000       0.017127         0.4661 
 106   0.0000       0.034391         0.9358 
 107   0.0000       0.039557         1.0764 
 108   0.0000       0.049880         1.3573 
 109   0.0000       0.061193         1.6652 
 110   0.0000       0.071985         1.9588 
 111   0.0000       0.075726         2.0606 
 112   0.0000       0.077394         2.1060 
 113   0.0000       0.081828         2.2267 
 114   0.0000       0.086460         2.3527 
*Only the first 10 virtual orbitals were printed.
-------
TIMINGS
-------

Total SCF time: 0 days 0 hours 6 min 23 sec 

Total time                  ....     383.473 sec
Sum of individual times     ....     383.240 sec  ( 99.9%)

SCF preparation             ....      16.487 sec  (  4.3%)
Fock matrix formation       ....     321.858 sec  ( 83.9%)
  Startup                   ....       2.879 sec  (  0.9% of F)
  RI-JK                     ....     291.343 sec  ( 90.5% of F)
  XC integration            ....      20.584 sec  (  6.4% of F)
    XC Preparation          ....       0.000 sec  (  0.0% of XC)
    Basis function eval.    ....       1.371 sec  (  6.7% of XC)
    Density eval.           ....       3.874 sec  ( 18.8% of XC)
    XC-Functional eval.     ....       0.042 sec  (  0.2% of XC)
    XC-Potential eval.      ....       5.628 sec  ( 27.3% of XC)
Diagonalization             ....       0.000 sec  (  0.0%)
Density matrix formation    ....       6.884 sec  (  1.8%)
Total Energy calculation    ....       2.008 sec  (  0.5%)
Population analysis         ....       0.000 sec  (  0.0%)
Orbital Transformation      ....       4.268 sec  (  1.1%)
Orbital Orthonormalization  ....       0.000 sec  (  0.0%)
DIIS solution               ....      22.979 sec  (  6.0%)
SOSCF solution              ....       8.595 sec  (  2.2%)
Finished LeanSCF after 383.9 sec

Maximum memory used throughout the entire LEANSCF-calculation: 974.5 MB


           ************************************************************
           *        Program running with 104 parallel MPI-processes   *
           *              working on a common directory               *
           ************************************************************

------------------------------------------------------------------------------
                                ORCA  MP2 
------------------------------------------------------------------------------


-------------
RI-MP2 ENERGY
-------------
Dimension of the orbital basis            ... 2304
Dimension of the AuxC basis               ... 5408
Memory devoted to MP2                     ... 4096 MB   
Data format for matrix containers         ... DOUBLE
Compression type for matrix containers    ... UNCOMPRESSED
Scaling for aa/bb pairs                   ...   5.710e-02
Scaling for ab pairs                      ...   5.979e-01
Overall scaling of the MP2 energy         ...   1.000e+00

-----------------------
SHARK RI TRANSFORMATION
-----------------------

Number of basis functions                ...   2304
Number of aux functions                  ...   5408
Number of operators                      ...      1
Generation of IJK                        ... NO
Generation of IAK                        ... YES
Generation of ABK                        ... NO
Orbital Range Operator  0:    0- 103 to  104-2303

Aux basis identifier                     ...   AUXC
Contraction scheme used                  ... SEGMENTED
Do orthogonalization                     ... YES
All operator combinations                ... NO
Transpose (ia|K)                         ... NO
Integral generator used                  ... LIBINT
Starting integral generation + trafo... 
Half trafo (segmented) done. Total time = 13.0 sec. integrals=  2.4 sec trafo=  9.0 sec
Integral generation and half transformation done ( 13.0 sec)

Reading or making V^(-1/2)          ... done (  0.5 sec)
Sorting IAK integrals               ... done ( 17.2 sec)

SHARK RI integral transformation done. Total time = 30.9 sec.

Opening buffers                              ... done

Starting loop over batches of integrals:

Operator 0  - window                       ... (  0-103)x(104-2303)
Operator 0  - Memory available             ...  4096 MB
Operator 0  - Memory needed per MO         ...  90.8 MB
Operator 0  - Number of orbitals per batch ... 1
Operator 0  - Number of batches            ... 1

OPERATOR  0   PASS   0:  MOs     0 ...    0 +    1 ...    1 +    2 ...    2 +    3 ...    3
                            +    4 ...    4 +    5 ...    5 +    6 ...    6 +    7 ...    7
                            +    8 ...    8 +    9 ...    9 +   10 ...   10 +   11 ...   11
                            +   12 ...   12 +   13 ...   13 +   14 ...   14 +   15 ...   15
                            +   16 ...   16 +   17 ...   17 +   18 ...   18 +   19 ...   19
                            +   20 ...   20 +   21 ...   21 +   22 ...   22 +   23 ...   23
                            +   24 ...   24 +   25 ...   25 +   26 ...   26 +   27 ...   27
                            +   28 ...   28 +   29 ...   29 +   30 ...   30 +   31 ...   31
                            +   32 ...   32 +   33 ...   33 +   34 ...   34 +   35 ...   35
                            +   36 ...   36 +   37 ...   37 +   38 ...   38 +   39 ...   39
                            +   40 ...   40 +   41 ...   41 +   42 ...   42 +   43 ...   43
                            +   44 ...   44 +   45 ...   45 +   46 ...   46 +   47 ...   47
                            +   48 ...   48 +   49 ...   49 +   50 ...   50 +   51 ...   51
                            +   52 ...   52 +   53 ...   53 +   54 ...   54 +   55 ...   55
                            +   56 ...   56 +   57 ...   57 +   58 ...   58 +   59 ...   59
                            +   60 ...   60 +   61 ...   61 +   62 ...   62 +   63 ...   63
                            +   64 ...   64 +   65 ...   65 +   66 ...   66 +   67 ...   67
                            +   68 ...   68 +   69 ...   69 +   70 ...   70 +   71 ...   71
                            +   72 ...   72 +   73 ...   73 +   74 ...   74 +   75 ...   75
                            +   76 ...   76 +   77 ...   77 +   78 ...   78 +   79 ...   79
                            +   80 ...   80 +   81 ...   81 +   82 ...   82 +   83 ...   83
                            +   84 ...   84 +   85 ...   85 +   86 ...   86 +   87 ...   87
                            +   88 ...   88 +   89 ...   89 +   90 ...   90 +   91 ...   91
                            +   92 ...   92 +   93 ...   93 +   94 ...   94 +   95 ...   95
                            +   96 ...   96 +   97 ...   97 +   98 ...   98 +   99 ...   99
                            +  100 ...  100 +  101 ...  101 +  102 ...  102 +  103 ...  103
  Reading integrals       ... ok
Time spent in pair loops =   115.168 sec

-----------------------------------------------
 RI-MP2 CORRELATION ENERGY:     -3.140710997 Eh
-----------------------------------------------


-------
TIMINGS
-------

Total time                :  150.875 sec
Integral trafo            :   31.348 sec ( 20.8%)
I/O of integrals          :    0.116 sec (  0.1%)
K(i,j) operators          :    1.009 sec (  0.7%)
T(i,j) pair energies      :    0.123 sec (  0.1%)
V**(-1/2)                 :    4.357 sec (  2.9%)


---------------------------------------
MP2 TOTAL ENERGY:    -1227.654565370 Eh
---------------------------------------

Maximum memory used throughout the entire MP2-calculation: 641.6 MB


-------------------------------------------------------------------------------
                          DFT DISPERSION CORRECTION                            
                                                                               
                                DFTD4 V3.4.0                                   
-------------------------------------------------------------------------------
The REV-DSD-PBEP86-2021 functional is recognized
A user input s6-coefficient scaling factor has been recognized
A user input a1-coefficient scaling factor has been recognized
A user input s8-coefficient scaling factor has been recognized
A user input a2-coefficient scaling factor has been recognized
A user input s9-coefficient scaling factor has been recognized
Active option DFTDOPT                   ...         5   

-------------------------   ----------------
Dispersion correction           -0.053253724
-------------------------   ----------------


-------------------------   --------------------
FINAL SINGLE POINT ENERGY     -1227.707819093929
-------------------------   --------------------



           ************************************************************
           *        Program running with 104 parallel MPI-processes   *
           *              working on a common directory               *
           ************************************************************

------------------------------------------------------------------------------
                              ORCA PROPERTY CALCULATIONS
------------------------------------------------------------------------------

GBWName                                 ... compas3D_hc_c32h16_0pent_3_qz_riri.gbw
Number of atoms                         ...     48
Number of basis functions               ...   2304
Max core memory                         ...   1024 MB

Electric properties:
Dipole moment                           ... YES
Quadrupole moment                       ...  NO
Static polarizability (Dipole/Dipole)   ...  NO
Static polarizability (Dipole/Quad.)    ...  NO
Static polarizability (Quad./Quad.)     ...  NO
Static polarizability (Velocity)        ...  NO

Atomic electric properties:
Dipole moment                           ...  NO
Quadrupole moment                       ...  NO
Static polarizability                   ...  NO

Choice of electric origin               ... Center of mass
Position of electric origin             ...    -0.062471     0.110018    -0.000472

General magnetic properties:
Magnetizability                         ...  NO

EPR properties:
g-Tensor (aka g-matrix)                 ...  NO
Zero-Field splitting spin-orbit         ...  NO
Zero-field splitting spin-spin          ...  NO
Hyperfine couplings                     ...  NO (   0 nuclei)
Quadrupole couplings                    ...  NO (   0 nuclei)
Contact density                         ...  NO (   0 nuclei)

NMR properties:
Chemical shifts                         ...  NO (   0 nuclei)
Spin-rotation constants                 ...  NO (   0 nuclei)
Spin-spin couplings                     ...  NO (   0 nuclei,    0 pairs)

Choice of magnetic origin               ... GIAO
Position of magnetic origin             ...     0.000000     0.000000     0.000000

Properties with geometric perturbations:
SCF Hessian                             ...  NO
IR spectrum                             ...  NO
VCD spectrum                            ...  NO
X-ray spectroscopy properties:
SCF XES/XAS/RIXS spectra                ...  NO


-------------
DIPOLE MOMENT
-------------

Method             : SCF
Type of density    : Electron Density
Multiplicity       :   1
Irrep              :   0
Energy             : -1224.5138543724806368 Eh
Relativity type    : 
Basis              : AO
                                X                 Y                 Z
Electronic contribution:     -1.626923076       2.844195197      -0.010648913
Nuclear contribution   :      1.626092984      -2.863965050       0.010232103
                        -----------------------------------------
Total Dipole Moment    :     -0.000830092      -0.019769853      -0.000416810
                        -----------------------------------------
Magnitude (a.u.)       :      0.019791661
Magnitude (Debye)      :      0.050306405



--------------------
Rotational spectrum 
--------------------
 
Rotational constants in cm-1:             0.007517             0.004257             0.002718 
Rotational constants in MHz :           225.353223           127.632555            81.486481 

Dipole components along the rotational axes: 
x,y,z [a.u.] :    -0.015109    -0.012778    -0.000399 
x,y,z [Debye]:    -0.038403    -0.032479    -0.001013 

 

Dipole moment calculation done in   0.4 sec 

Maximum memory used throughout the entire PROP-calculation: 338.2 MB

--------------------------------
SUGGESTED CITATIONS FOR THIS RUN
--------------------------------

Below you find a list of papers that are relevant to this ORCA run
We neither can nor want to force you to cite these papers, but we appreciate if you do
You receive ORCA, which is the product of decades of hard work by many enthusiastic individuals, for free
The only thing we kindly ask in return is that you cite our papers,
We deeply appreciate it, if you show your appreciation for ORCA by not just citing the generic ORCA reference.

Please note that relegating all ORCA citations to the supporting information does *not* help us.
SI sections are not indexed - citations you put there will not count into any citation statistics
But we need these citations in order to attract the funding resources that allow us to do what we are doing

Therefore, if you are a happy ORCA user, please consider citing a few of the papers listed below in the main body of your paper

In addition to the list printed below, the program has created the file compas3D_hc_c32h16_0pent_3_qz_riri.bibtex that contains the list in bibtex format
You can import this file easily into all common literature databanks and citation aid programs


List of essential papers. We consider these as the minimum necessary citations

  1. Neese,F.
     Software update: the ORCA program system, version 5.0
     WIRES Comput. Molec. Sci., 2022 12(1)e1606
     doi.org/10.1002/wcms.1606

List of papers to cite with high priority. The work reported in these papers was absolutely
necessary for this run to complete.
Our perspective: the developers of density functionals and basis sets usually get cited in chemistry papers
Good! But without the algorithms to do something with them, the functionals or basis sets would not do anything.
Hence, in our opinion, the algorithm design and method developments papers are equally worthy of getting cited

  1. Neese,F.
     An improvement of the resolution of the identity approximation for the formation of the Coulomb matrix
     J. Comp. Chem., 2003 24(14)1740-1747
     doi.org/10.1002/jcc.10318
  2. Kossmann,S.; Neese,F.
     Comparison of two efficient approximate Hartee-Fock approaches
     Chem. Phys. Lett., 2009 481 240-243
     doi.org/10.1016/j.cplett.2009.09.073
  3. Neese,F.
     The SHARK Integral Generation and Digestion System
     J. Comp. Chem., 2022  1-16
     doi.org/10.1002/jcc.26942
  4. Caldeweyher,E.; Bannwarth,C.; Grimme,S.
     Extension of the D3 dispersion coefficient model
     J. Chem. Phys., 2017 147 034112
     doi.org/10.1063/1.4993215
  5. Caldeweyher,E.; Ehlert,S.; Hansen,A.; Neugebauer,H.; Spicher,S.; Bannwarth,C.; Grimme,S.
     A generally applicable atomic-charge dependent London dispersion correction
     J. Chem. Phys., 2019 150 154122
     doi.org/10.1063/1.5090222
  6. Caldeweyher,E.; Mewes,J.; Ehlert,S.; Grimme,S.
     Extension and evaluation of the D4 London-dispersion model for periodic systems
     Phys. Chem. Chem. Phys., 2020 22(16)8499-8512
     doi.org/10.1039/D0CP00502A
  7. Wittmann,L.; Gordiy,I.; Friede,M.; Helmich-Paris,B.; Grimme,S.; Hansen,A.; Bursch,M.
     Extension of the D3 and D4 London Dispersion Corrections to the full Actinides Series
     Phys. Chem. Chem. Phys., 2024 26(32)21379-21394
     doi.org/https://doi.org/10.1039/D4CP01514B 

List of suggested additional citations. These are papers that are important in the 'surrounding' of 
of this run, or papers that preceded the highly important papers. If you like your results we are grateful for a citation.

  1. Neese,F.
     The ORCA program system
     WIRES Comput. Molec. Sci., 2012 2(1)73-78
     doi.org/10.1002/wcms.81
  2. Neese,F.
     Software update: the ORCA program system, version 4.0
     WIRES Comput. Molec. Sci., 2018 8(1)1-6
     doi.org/10.1002/wcms.1327
  3. Neese,F.; Wennmohs,F.; Becker,U.; Riplinger,C.
     The ORCA quantum chemistry program package
     J. Chem. Phys., 2020 152 Art. No. L224108
     doi.org/10.1063/5.0004608

List of optional additional citations

  1. Neese,F.
     Approximate second-order SCF convergence for spin unrestricted wavefunctions
     Chem. Phys. Lett., 2000 325(1-3)93-98
     doi.org/10.1016/s0009-2614(00)00662-x

Timings for individual modules:

Sum of individual times          ...      623.428 sec (=  10.390 min)
Startup calculation              ...       29.360 sec (=   0.489 min)   4.7 %
SCF iterations                   ...      407.302 sec (=   6.788 min)  65.3 %
Property calculations            ...       17.876 sec (=   0.298 min)   2.9 %
MP2 module                       ...      168.890 sec (=   2.815 min)  27.1 %
                             ****ORCA TERMINATED NORMALLY****
TOTAL RUN TIME: 0 days 0 hours 10 minutes 40 seconds 351 msec
