
                                 *****************
                                 * O   R   C   A *
                                 *****************

                                            #,                                       
                                            ###                                      
                                            ####                                     
                                            #####                                    
                                            ######                                   
                                           ########,                                 
                                     ,,################,,,,,                         
                               ,,#################################,,                 
                          ,,##########################################,,             
                       ,#########################################, ''#####,          
                    ,#############################################,,   '####,        
                  ,##################################################,,,,####,       
                ,###########''''           ''''###############################       
              ,#####''   ,,,,##########,,,,          '''####'''          '####       
            ,##' ,,,,###########################,,,                        '##       
           ' ,,###''''                  '''############,,,                           
         ,,##''                                '''############,,,,        ,,,,,,###''
      ,#''                                            '''#######################'''  
     '                                                          ''''####''''         
             ,#######,   #######,   ,#######,      ##                                
            ,#'     '#,  ##    ##  ,#'     '#,    #''#        ,####,   ,####,        
            ##       ##  ##   ,#'  ##            #'  '#       #'       #'  '#        
            ##       ##  #######   ##           ,######,      #####,   #    #        
            '#,     ,#'  ##    ##  '#,     ,#' ,#      #,     #,   #   #,  ,#        
             '#######'   ##     ##  '#######'  #'      '#     '####' # '####'        



                #########################################################
                #                        -***-                          #
                #          Department of theory and spectroscopy        #
                #                                                       #
                #                      Frank Neese                      #
                #                                                       #
                #     Directorship, Architecture, Infrastructure        #
                #                    SHARK, DRIVERS                     #
                #        Core code/Algorithms in most modules           #
                #                                                       #
                #        Max Planck Institute fuer Kohlenforschung      #
                #                Kaiser Wilhelm Platz 1                 #
                #                 D-45470 Muelheim/Ruhr                 #
                #                      Germany                          #
                #                                                       #
                #                  All rights reserved                  #
                #                        -***-                          #
                #########################################################


                         Program Version 6.0.1  -  RELEASE   -


 With contributions from (in alphabetic order):
[Max-Planck-Institut fuer Kohlenforschung]                               
  Daniel Aravena         : Magnetic Suceptibility                        
  Michael Atanasov       : Ab Initio Ligand Field Theory (pilot matlab implementation)
  Alexander A. Auer      : GIAO ZORA, VPT2 properties, NMR spectrum      
  Ute Becker             : All parallelization in ORCA, NUMFREQ, NUMCALC 
  Giovanni Bistoni       : ED, misc. LED, open-shell LED, HFLD           
  Martin Brehm           : Molecular dynamics                            
  Dmytro Bykov           : pre 5.0 version of the SCF Hessian            
  Marcos Casanova-Páez   : Triplet and SCS-CIS(D). UHF-(DLPNO)-IP/EA/STEOM-CCSD. UHF-CVS-IP/STEOM-CCSD   
  Vijay G. Chilkuri      : MRCI spin determinant printing, contributions to CSF-ICE 
  Pauline Colinet        : FMM embedding                                 
  Dipayan Datta          : RHF DLPNO-CCSD density                        
  Achintya Kumar Dutta   : EOM-CC, STEOM-CC                              
  Nicolas Foglia         : Exact transition moments, OPA infrastructure, MCD improvements    
  Dmitry Ganyushin       : Spin-Orbit,Spin-Spin,Magnetic field MRCI      
  Miquel Garcia-Rates    : C-PCM and meta-GGA Hessian, CCSD/C-PCM, Gaussian charge scheme 
  Tiago L. C. Gouveia    : GS-ROHF, GS-ROCIS                             
  Yang Guo               : DLPNO-NEVPT2, F12-NEVPT2, CIM, IAO-localization        
  Andreas Hansen         : Spin unrestricted coupled pair/coupled cluster methods 
  Ingolf Harden          : AUTO-CI MPn and infrastructure                
  Benjamin Helmich-Paris : MC-RPA, TRAH-(SCF,CASSCF), AVAS, COSX integrals, SCF dyn. polar. 
  Lee Huntington         : MR-EOM, pCC                                   
  Robert Izsak           : Overlap fitted RIJCOSX, COSX-SCS-MP3, EOM     
  Riya Kayal             : Wick's Theorem for AUTO-CI, AUTO-CI UHF-CCSDT 
  Emily Kempfer          : AUTO-CI, RHF CISDT and CCSDT                  
  Christian Kollmar      : KDIIS, OOCD, Brueckner-CCSD(T), CCSD density, CASPT2, CASPT2-K, improved NEVPT2 
  Axel Koslowski         : Symmetry handling                             
  Simone Kossmann        : meta-GGA functionals, TD-DFT gradient, OOMP2, (MP2 Hessian; deprecated post 5.0) 
  Lucas Lang             : DCDCAS                                        
  Marvin Lechner         : AUTO-CI (C++ implementation), FIC-MRCC        
  Spencer Leger          : CASSCF response                               
  Dagmar Lenk            : GEPOL surface, SMD, ORCA-2-JSON               
  Dimitrios Liakos       : Extrapolation schemes; Compound Job, initial MDCI parallelization 
  Dimitrios Manganas     : Further ROCIS development; embedding schemes. LFT, Crystal Embedding 
  Dimitrios Pantazis     : SARC Basis sets                               
  Anastasios Papadopoulos: AUTO-CI, single reference methods and gradients 
  Taras Petrenko         : pre 6.0 DFT Hessian and TD-DFT gradient, (ASA, deprecated), ECA, 1-Electron XAS/XES, NRVS 
  Peter Pinski           : DLPNO-MP2, DLPNO-MP2 Gradient                 
  Christoph Reimann      : Effective Core Potentials                     
  Marius Retegan         : Local ZFS, SOC                                
  Christoph Riplinger    : Optimizer, TS searches, QM/MM, DLPNO-CCSD(T), (RO)-DLPNO pert. Triples 
  Michael Roemelt        : Original ROCIS implementation                 
  Masaaki Saitow         : Open-shell DLPNO-CCSD energy and density      
  Barbara Sandhoefer     : DKH picture change effects                    
  Kantharuban Sivalingam : CASSCF convergence/infrastructure, NEVPT2 and variants, FIC-MRCI 
  Bernardo de Souza      : ESD, SOC TD-DFT                               
  Georgi L. Stoychev     : AutoAux, RI-MP2 NMR, DLPNO-MP2 response, X2C  
  Van Anh Tran           : RI-MP2 g-tensors                              
  Willem Van den Heuvel  : Paramagnetic NMR                              
  Zikuan Wang            : NOTCH, Electric field optimization            
  Frank Wennmohs         : Technical directorship and infrastructure     
  Hang Xu                : AUTO-CI-Response properties                   
                                                                         
[FACCTs GmbH]                                                            
  Markus Bursch, Miquel Garcia-Rates, Christoph Riplinger, Bernardo de Souza, Georgi L. Stoychev 
                                                                 
  APM, Basis sets (HGBS, AHGBS, def-TZVP (Ac-Lr), def2-XVPD (La-Lu)), CI-OPT, improved COSX, DLPNO-Multilevel,           
  DOCKER, DRACO, updates on ESD, GOAT, IRC, LR-CPCM, MBIS, meta-GGA TD-DFT gradient, ML-optimized integration grids, 
  MM, NACMEs, nearIR, NEB, NEB-TS, NL-DFT gradient (VV10), 2- and 3-layer-ONIOM, interface openCOSMO-RS, QMMM,   
  Crystal-QMMM, SF, symmetry and pop. for TD-DFT, r2SCAN hybrids, SOLVATOR                                   
                                                                         
[Other institutions]                                                     
  V. Asgeirsson          : NEB                                           
  Christoph Bannwarth    : sTDA-DFT, sTD-DFT, PBEh-3c, B97-3c, D3        
  Sebastian Ehlert       : rSCAN, r2SCAN, r2SCAN-3c, D4, dhf basis sets  
  Marvin Friede          : D4 for Fr, Ra, Ac-Lr                          
  Lars Goerigk           : TD-DFT with DH, B97 family of functionals     
  Stefan Grimme          : VdW corrections, initial TS optimization, DFT functionals, gCP, sTDA/sTD-DF 
  Waldemar Hujo          : DFT-NL                                        
  H. Jonsson             : NEB                                           
  Holger Kruse           : gCP                                           
  Marcel Mueller         : wB97X-3c, vDZP basis set                      
  Hagen Neugebauer       : wr2SCAN                                       
  Tobias Risthaus        : range-separated hybrid DFT                    
  Lukas Wittmann         : regularized MP2, r2SCAN double-hybrids, wr2SCAN        
                                                                         
We gratefully acknowledge several colleagues who have allowed us to      
interface, adapt or use parts of their codes:                            
  Ed Valeev, F. Pavosevic, A. Kumar             : LibInt (2-el integral package), F12 methods 
  Garnet Chan, S. Sharma, J. Yang, R. Olivares  : DMRG                   
  Ulf Ekstrom                                   : XCFun DFT Library      
  Mihaly Kallay                                 : mrcc  (arbitrary order and MRCC methods)
  Frank Weinhold                                : gennbo (NPA and NBO analysis)           
  Simon Mueller                                 : openCOSMO-RS                            
  Christopher J. Cramer and Donald G. Truhlar   : smd solvation model                     
  S Lehtola, MJT Oliveira, MAL Marques          : LibXC Library                           
  Liviu Ungur et al                             : ANISO software                          


 Your calculation uses the libint2 library for the computation of 2-el integrals
 For citations please refer to: http://libint.valeyev.net

 Your ORCA version has been built with support for libXC version: 6.2.2
 For citations please refer to: https://libxc.gitlab.io

 This ORCA versions uses:
   CBLAS   interface :  Fast vector & matrix operations
   LAPACKE interface :  Fast linear algebra routines
   SCALAPACK package :  Parallel linear algebra routines
   Shared memory     :  Shared parallel matrices
   BLAS/LAPACK       :  OpenBLAS 0.3.27  USE64BITINT DYNAMIC_ARCH NO_AFFINITY SapphireRapids SINGLE_THREADED
        Core in use  :  SapphireRapids
   Copyright (c) 2011-2014, The OpenBLAS Project


Warning! Weird basis set assignment to AuxJK basis!


***************************************
The coordinates will be read from file: /g/data/kx58/rs2200/dhdft/inputs/compas3x-xyzs/hc_c24h12_0pent_1.xyz
***************************************


Your calculation utilizes the atom-pairwise dispersion correction
based on EEQ partial charges (D4)


================================================================================

----- Orbital basis set information -----
Your calculation utilizes the basis: def2-QZVPP
   F. Weigend and R. Ahlrichs, Phys. Chem. Chem. Phys. 7, 3297 (2005).

----- AuxC basis set information -----
Your calculation utilizes the auxiliary basis: def2-QZVPP/C
  H-La, Hf-Rn : A. Hellweg, C. Hattig, S. Hofener and W. Klopper, Theor. Chem. Acc. 117, 587 (2007).
        Ce-Lu : J. Chmela and M. E. Harding, Mol. Phys. (2018).

----- AuxJK basis set information -----
Your calculation utilizes the auxiliary basis: def2-QZVPP/C
  H-La, Hf-Rn : A. Hellweg, C. Hattig, S. Hofener and W. Klopper, Theor. Chem. Acc. 117, 587 (2007).
        Ce-Lu : J. Chmela and M. E. Harding, Mol. Phys. (2018).

================================================================================
                                        WARNINGS
                       Please study these warnings very carefully!
================================================================================


WARNING: No MP2 level density has been requested!
         To calculate MP2 level properties use
         %mp2 Density relaxed end
         or
         %mp2 Density unrelaxed end
         Otherwise for double-hybrid DFT only the energy is correct!

================================================================================
                                       INPUT FILE
================================================================================
NAME = compas3x_hc_c24h12_0pent_1_qz_riri.inp
|  1> ! RKS revDSD-PBEP86-D4/2021 defgrid3  RIJK NOPOP NoFrozencore NoUseSym
|  2> 
|  3> %basis
|  4> Basis "def2-QZVPP"
|  5> AuxJK "def2-QZVPP/C"
|  6> AuxC "def2-QZVPP/C"
|  7> end
|  8> 
|  9> %method
| 10> ScalHFX 0.69
| 11> ScalDFX 0.31
| 12> ScalDFC 0.4038
| 13> ScalLDAC 0.4038
| 14> 
| 15> D4S6 0.4612
| 16> D4S8 0.0
| 17> D4A1 0.44
| 18> D4A2 3.60
| 19> end
| 20> 
| 21> %mp2
| 22> PS 0.5979
| 23> PT 0.0571
| 24> 
| 25> end
| 26> 
| 27> %pal
| 28> nprocs 104
| 29> end
| 30> 
| 31> *XYZFILE 0 1 /g/data/kx58/rs2200/dhdft/inputs/compas3x-xyzs/hc_c24h12_0pent_1.xyz
| 32> 
| 33>                          ****END OF INPUT****
================================================================================

                       ****************************
                       * Single Point Calculation *
                       ****************************

---------------------------------
CARTESIAN COORDINATES (ANGSTROEM)
---------------------------------
  C      0.943609    1.056982    0.001329
  C      1.387182   -0.288636    0.000019
  C      0.443629   -1.345589   -0.001895
  C     -0.943498   -1.056926   -0.001405
  C     -1.387071    0.288690    0.000650
  C     -0.443518    1.345645    0.001471
  C      1.883037    2.109317    0.002569
  C      3.261430    1.792549    0.003641
  C      3.688065    0.498316    0.002849
  C      2.768245   -0.576038    0.000515
  C      3.183114   -1.928144   -0.001468
  C      2.275594   -2.944734   -0.004069
  C      0.885264   -2.685325   -0.004234
  C     -0.078261   -3.720662   -0.006638
  C     -1.412417   -3.443023   -0.005871
  C     -1.882927   -2.109261   -0.002894
  C     -0.885153    2.685382    0.002463
  C      0.078373    3.720722    0.002694
  C      1.412528    3.443082    0.002855
  C     -3.261319   -1.792495   -0.001211
  C     -3.687954   -0.498265    0.001233
  C     -2.768135    0.576091    0.001751
  C     -3.183003    1.928197    0.003156
  C     -2.275482    2.944791    0.003183
  H      3.976022    2.603843    0.004944
  H      4.745029    0.271000    0.003585
  H      4.243012   -2.141354   -0.000725
  H      2.607218   -3.973746   -0.005675
  H      0.267043   -4.745160   -0.009262
  H     -2.137756   -4.244720   -0.007707
  H     -0.266932    4.745223    0.002701
  H      2.137868    4.244781    0.003183
  H     -3.975911   -2.603789   -0.001874
  H     -4.744916   -0.270952    0.002600
  H     -4.242901    2.141405    0.004371
  H     -2.607107    3.973804    0.004167

----------------------------
CARTESIAN COORDINATES (A.U.)
----------------------------
  NO LB      ZA    FRAG     MASS         X           Y           Z
   0 C     6.0000    0    12.011    1.783162    1.997406    0.002512
   1 C     6.0000    0    12.011    2.621394   -0.545443    0.000035
   2 C     6.0000    0    12.011    0.838337   -2.542795   -0.003580
   3 C     6.0000    0    12.011   -1.782952   -1.997301   -0.002655
   4 C     6.0000    0    12.011   -2.621184    0.545546    0.001228
   5 C     6.0000    0    12.011   -0.838127    2.542901    0.002779
   6 C     6.0000    0    12.011    3.558425    3.986031    0.004855
   7 C     6.0000    0    12.011    6.163209    3.387426    0.006881
   8 C     6.0000    0    12.011    6.969432    0.941681    0.005383
   9 C     6.0000    0    12.011    5.231226   -1.088554    0.000974
  10 C     6.0000    0    12.011    6.015214   -3.643664   -0.002774
  11 C     6.0000    0    12.011    4.300249   -5.564741   -0.007689
  12 C     6.0000    0    12.011    1.672906   -5.074528   -0.008002
  13 C     6.0000    0    12.011   -0.147893   -7.031031   -0.012543
  14 C     6.0000    0    12.011   -2.669081   -6.506370   -0.011095
  15 C     6.0000    0    12.011   -3.558216   -3.985925   -0.005469
  16 C     6.0000    0    12.011   -1.672696    5.074637    0.004654
  17 C     6.0000    0    12.011    0.148103    7.031145    0.005091
  18 C     6.0000    0    12.011    2.669290    6.506482    0.005395
  19 C     6.0000    0    12.011   -6.163001   -3.387325   -0.002289
  20 C     6.0000    0    12.011   -6.969223   -0.941585    0.002331
  21 C     6.0000    0    12.011   -5.231017    1.088654    0.003309
  22 C     6.0000    0    12.011   -6.015004    3.643765    0.005964
  23 C     6.0000    0    12.011   -4.300039    5.564848    0.006014
  24 H     1.0000    0     1.008    7.513592    4.920550    0.009343
  25 H     1.0000    0     1.008    8.966805    0.512116    0.006774
  26 H     1.0000    0     1.008    8.018131   -4.046572   -0.001369
  27 H     1.0000    0     1.008    4.926928   -7.509291   -0.010725
  28 H     1.0000    0     1.008    0.504639   -8.967053   -0.017503
  29 H     1.0000    0     1.008   -4.039774   -8.021359   -0.014563
  30 H     1.0000    0     1.008   -0.504428    8.967172    0.005105
  31 H     1.0000    0     1.008    4.039984    8.021473    0.006015
  32 H     1.0000    0     1.008   -7.513382   -4.920447   -0.003542
  33 H     1.0000    0     1.008   -8.966591   -0.512026    0.004914
  34 H     1.0000    0     1.008   -8.017921    4.046668    0.008259
  35 H     1.0000    0     1.008   -4.926718    7.509400    0.007875

--------------------------------
INTERNAL COORDINATES (ANGSTROEM)
--------------------------------
 C      0   0   0     0.000000000000     0.00000000     0.00000000
 C      1   0   0     1.416843554330     0.00000000     0.00000000
 C      2   1   0     1.416843911894   119.99999030     0.00000000
 C      3   2   1     1.416843748894   119.99999250   359.94898614
 C      4   3   2     1.416843660024   120.00000344     0.00000000
 C      1   2   3     1.416843729396   120.00000314     0.03474525
 C      1   2   3     1.410651183671   120.00001091   180.03119661
 C      7   1   2     1.414322699471   118.81319504   359.94600510
 C      8   7   1     1.362738529857   121.18681431     0.03167030
 C      2   1   3     1.410651204883   119.99998925   179.99514012
 C     10   2   1     1.414323200750   118.81318964   180.02995903
 C     11  10   2     1.362738326357   121.18681136     0.00000000
 C      3   2   1     1.410651570065   119.99999050   179.95146827
 C     13   3   2     1.414322774291   118.81316431   180.02436204
 C     14  13   3     1.362737683580   121.18683050   359.95831323
 C      4   3   2     1.410651376373   119.99999832   180.01950310
 C      6   1   2     1.410651412048   120.00000834   180.01467268
 C     17   6   1     1.414322778806   118.81317663     0.02812977
 C     18  17   6     1.362737458187   121.18682420   359.95694423
 C     16   4   3     1.414322886394   118.81317009   179.94671070
 C     20  16   4     1.362737941315   121.18683962     0.02763829
 C      5   4   3     1.410651317215   120.00000021   180.02878561
 C     22   5   4     1.414322874252   118.81318941   180.02977351
 C     23  22   5     1.362738422144   121.18681564     0.00000000
 H      8   7   1     1.081129735199   118.43137584   180.02140116
 H      9   8   7     1.081131829722   120.38185164   179.99380725
 H     11  10   2     1.081130218712   118.43141501   180.02109710
 H     12  11  10     1.081129865255   120.38165436   179.99316595
 H     14  13   3     1.081128708421   118.43140202   179.94944830
 H     15  14  13     1.081128849522   120.38174569   180.00168112
 H     18  17   6     1.081128343325   118.43140751   179.95454605
 H     19  18  17     1.081128594777   120.38178170   180.00932023
 H     20  16   4     1.081128010774   118.43138072   180.02967960
 H     21  20  16     1.081129446557   120.38183727   180.00625313
 H     23  22   5     1.081130115282   118.43141836   180.02262596
 H     24  23  22     1.081130373999   120.38167718   179.99396993

---------------------------
INTERNAL COORDINATES (A.U.)
---------------------------
 C      0   0   0     0.000000000000     0.00000000     0.00000000
 C      1   0   0     2.677446292296     0.00000000     0.00000000
 C      2   1   0     2.677446967993   119.99999030     0.00000000
 C      3   2   1     2.677446659967   119.99999250   359.94898614
 C      4   3   2     2.677446492028   120.00000344     0.00000000
 C      1   2   3     2.677446623122   120.00000314     0.03474525
 C      1   2   3     2.665744407629   120.00001091   180.03119661
 C      7   1   2     2.672682566989   118.81319504   359.94600510
 C      8   7   1     2.575202613572   121.18681431     0.03167030
 C      2   1   3     2.665744447715   119.99998925   179.99514012
 C     10   2   1     2.672683514268   118.81318964   180.02995903
 C     11  10   2     2.575202229013   121.18681136     0.00000000
 C      3   2   1     2.665745137809   119.99999050   179.95146827
 C     13   3   2     2.672682708378   118.81316431   180.02436204
 C     14  13   3     2.575201014340   121.18683050   359.95831323
 C      4   3   2     2.665744771784   119.99999832   180.01950310
 C      6   1   2     2.665744839200   120.00000834   180.01467268
 C     17   6   1     2.672682716911   118.81317663     0.02812977
 C     18  17   6     2.575200588409   121.18682420   359.95694423
 C     16   4   3     2.672682920221   118.81317009   179.94671070
 C     20  16   4     2.575201501389   121.18683962     0.02763829
 C      5   4   3     2.665744659992   120.00000021   180.02878561
 C     22   5   4     2.672682897277   118.81318941   180.02977351
 C     23  22   5     2.575202410025   121.18681564     0.00000000
 H      8   7   1     2.043039114764   118.43137584   180.02140116
 H      9   8   7     2.043043072840   120.38185164   179.99380725
 H     11  10   2     2.043040028472   118.43141501   180.02109710
 H     12  11  10     2.043039360535   120.38165436   179.99316595
 H     14  13   3     2.043037174436   118.43140202   179.94944830
 H     15  14  13     2.043037441077   120.38174569   180.00168112
 H     18  17   6     2.043036484504   118.43140751   179.95454605
 H     19  18  17     2.043036959680   120.38178170   180.00932023
 H     20  16   4     2.043035856074   118.43138072   180.02967960
 H     21  20  16     2.043038569310   120.38183727   180.00625313
 H     23  22   5     2.043039833017   118.43141836   180.02262596
 H     24  23  22     2.043040321922   120.38167718   179.99396993

---------------------
BASIS SET INFORMATION
---------------------
There are 2 groups of distinct atoms

 Group   1 Type C   : 15s8p3d2f1g contracted to 7s4p3d2f1g pattern {8211111/5111/111/11/1}
 Group   2 Type H   : 7s3p2d1f contracted to 4s3p2d1f pattern {4111/111/11/1}

Atom   0C    basis set group =>   1
Atom   1C    basis set group =>   1
Atom   2C    basis set group =>   1
Atom   3C    basis set group =>   1
Atom   4C    basis set group =>   1
Atom   5C    basis set group =>   1
Atom   6C    basis set group =>   1
Atom   7C    basis set group =>   1
Atom   8C    basis set group =>   1
Atom   9C    basis set group =>   1
Atom  10C    basis set group =>   1
Atom  11C    basis set group =>   1
Atom  12C    basis set group =>   1
Atom  13C    basis set group =>   1
Atom  14C    basis set group =>   1
Atom  15C    basis set group =>   1
Atom  16C    basis set group =>   1
Atom  17C    basis set group =>   1
Atom  18C    basis set group =>   1
Atom  19C    basis set group =>   1
Atom  20C    basis set group =>   1
Atom  21C    basis set group =>   1
Atom  22C    basis set group =>   1
Atom  23C    basis set group =>   1
Atom  24H    basis set group =>   2
Atom  25H    basis set group =>   2
Atom  26H    basis set group =>   2
Atom  27H    basis set group =>   2
Atom  28H    basis set group =>   2
Atom  29H    basis set group =>   2
Atom  30H    basis set group =>   2
Atom  31H    basis set group =>   2
Atom  32H    basis set group =>   2
Atom  33H    basis set group =>   2
Atom  34H    basis set group =>   2
Atom  35H    basis set group =>   2
---------------------------------
AUXILIARY/C BASIS SET INFORMATION
---------------------------------
There are 2 groups of distinct atoms

 Group   1 Type C   : 9s8p7d5f3g1h contracted to 9s8p7d5f3g1h pattern {111111111/11111111/1111111/11111/111/1}
 Group   2 Type H   : 6s4p3d2f1g contracted to 6s4p3d2f1g pattern {111111/1111/111/11/1}

Atom   0C    basis set group =>   1
Atom   1C    basis set group =>   1
Atom   2C    basis set group =>   1
Atom   3C    basis set group =>   1
Atom   4C    basis set group =>   1
Atom   5C    basis set group =>   1
Atom   6C    basis set group =>   1
Atom   7C    basis set group =>   1
Atom   8C    basis set group =>   1
Atom   9C    basis set group =>   1
Atom  10C    basis set group =>   1
Atom  11C    basis set group =>   1
Atom  12C    basis set group =>   1
Atom  13C    basis set group =>   1
Atom  14C    basis set group =>   1
Atom  15C    basis set group =>   1
Atom  16C    basis set group =>   1
Atom  17C    basis set group =>   1
Atom  18C    basis set group =>   1
Atom  19C    basis set group =>   1
Atom  20C    basis set group =>   1
Atom  21C    basis set group =>   1
Atom  22C    basis set group =>   1
Atom  23C    basis set group =>   1
Atom  24H    basis set group =>   2
Atom  25H    basis set group =>   2
Atom  26H    basis set group =>   2
Atom  27H    basis set group =>   2
Atom  28H    basis set group =>   2
Atom  29H    basis set group =>   2
Atom  30H    basis set group =>   2
Atom  31H    basis set group =>   2
Atom  32H    basis set group =>   2
Atom  33H    basis set group =>   2
Atom  34H    basis set group =>   2
Atom  35H    basis set group =>   2
----------------------------------
AUXILIARY/JK BASIS SET INFORMATION
----------------------------------
There are 2 groups of distinct atoms

 Group   1 Type C   : 9s8p7d5f3g1h contracted to 9s8p7d5f3g1h pattern {111111111/11111111/1111111/11111/111/1}
 Group   2 Type H   : 6s4p3d2f1g contracted to 6s4p3d2f1g pattern {111111/1111/111/11/1}

Atom   0C    basis set group =>   1
Atom   1C    basis set group =>   1
Atom   2C    basis set group =>   1
Atom   3C    basis set group =>   1
Atom   4C    basis set group =>   1
Atom   5C    basis set group =>   1
Atom   6C    basis set group =>   1
Atom   7C    basis set group =>   1
Atom   8C    basis set group =>   1
Atom   9C    basis set group =>   1
Atom  10C    basis set group =>   1
Atom  11C    basis set group =>   1
Atom  12C    basis set group =>   1
Atom  13C    basis set group =>   1
Atom  14C    basis set group =>   1
Atom  15C    basis set group =>   1
Atom  16C    basis set group =>   1
Atom  17C    basis set group =>   1
Atom  18C    basis set group =>   1
Atom  19C    basis set group =>   1
Atom  20C    basis set group =>   1
Atom  21C    basis set group =>   1
Atom  22C    basis set group =>   1
Atom  23C    basis set group =>   1
Atom  24H    basis set group =>   2
Atom  25H    basis set group =>   2
Atom  26H    basis set group =>   2
Atom  27H    basis set group =>   2
Atom  28H    basis set group =>   2
Atom  29H    basis set group =>   2
Atom  30H    basis set group =>   2
Atom  31H    basis set group =>   2
Atom  32H    basis set group =>   2
Atom  33H    basis set group =>   2
Atom  34H    basis set group =>   2
Atom  35H    basis set group =>   2


           ************************************************************
           *        Program running with 104 parallel MPI-processes   *
           *              working on a common directory               *
           ************************************************************
------------------------------------------------------------------------------
                             ORCA STARTUP CALCULATIONS
                           -- RI-GTO INTEGRALS CHOSEN --
------------------------------------------------------------------------------
------------------------------------------------------------------------------
                   ___                                                        
                  /   \      - P O W E R E D   B Y -                         
                 /     \                                                     
                 |  |  |   _    _      __       _____    __    __             
                 |  |  |  | |  | |    /  \     |  _  \  |  |  /  |          
                  \  \/   | |  | |   /    \    | | | |  |  | /  /          
                 / \  \   | |__| |  /  /\  \   | |_| |  |  |/  /          
                |  |  |   |  __  | /  /__\  \  |    /   |      \           
                |  |  |   | |  | | |   __   |  |    \   |  |\   \          
                \     /   | |  | | |  |  |  |  | |\  \  |  | \   \       
                 \___/    |_|  |_| |__|  |__|  |_| \__\ |__|  \__/        
                                                                              
                      - O R C A' S   B I G   F R I E N D -                    
                                      &                                       
                       - I N T E G R A L  F E E D E R -                       
                                                                              
 v1 FN, 2020, v2 2021, v3 2022-2024                                           
------------------------------------------------------------------------------


----------------------
SHARK INTEGRAL PACKAGE
----------------------

Number of atoms                             ...     36
Number of basis functions                   ...   1728
Number of shells                            ...    528
Maximum angular momentum                    ...      4
Integral batch strategy                     ... SHARK/LIBINT Hybrid
RI-J (if used) integral strategy            ... SPLIT-RIJ (Revised 2003 algorithm where possible)
Printlevel                                  ...      1
Contraction scheme used                     ... SEGMENTED contraction
Prescreening option                         ... SCHWARTZ
   Thresh                                   ... 1.000e-10
   Tcut                                     ... 1.000e-11
   Tpresel                                  ... 1.000e-11 
Coulomb Range Separation                    ... NOT USED
Exchange Range Separation                   ... NOT USED
Multipole approximations                    ... NOT USED
Finite Nucleus Model                        ... NOT USED
CABS basis                                  ... NOT available
Auxiliary Coulomb fitting basis             ... NOT available
Auxiliary J/K fitting basis                 ... AVAILABLE
   # of basis functions in Aux-JK           ...   4056
   # of shells in Aux-JK                    ...    984
   Maximum angular momentum in Aux-JK       ...      5
Auxiliary Correlation fitting basis         ... AVAILABLE
   # of basis functions in Aux-C            ...   4056
   # of shells in Aux-C                     ...    984
   Maximum angular momentum in Aux-C        ...      5
Auxiliary 'external' fitting basis          ... NOT available

Checking pre-screening integrals            ... done (  0.1 sec) Dimension = 528
Check shell pair data                       ... done (  0.1 sec)
Shell pair information
Shell pair cut-off parameter TPreSel        ...   1.0e-11
Total number of shell pairs                 ...    139656
Shell pairs after pre-screening             ...     89130
Total number of primitive shell pairs       ...    364386
Primitive shell pairs kept                  ...    160256
          la=0 lb=0:  13395 shell pairs
          la=1 lb=0:  19708 shell pairs
          la=1 lb=1:   6805 shell pairs
          la=2 lb=0:  12292 shell pairs
          la=2 lb=1:   8986 shell pairs
          la=2 lb=2:   2992 shell pairs
          la=3 lb=0:   7350 shell pairs
          la=3 lb=1:   5486 shell pairs
          la=3 lb=2:   3386 shell pairs
          la=3 lb=3:   1059 shell pairs
          la=4 lb=0:   2970 shell pairs
          la=4 lb=1:   2232 shell pairs
          la=4 lb=2:   1440 shell pairs
          la=4 lb=3:    840 shell pairs
          la=4 lb=4:    189 shell pairs

Calculating one electron integrals          ... done (  1.2 sec)
Calculating RI/JK V-Matrix + Cholesky decomp... done (  1.1 sec)
Calculating RI/C V-Matrix + Cholesky decomp.... done (101.1 sec)
Calculating Nuclear repulsion               ... done (  0.0 sec) ENN=   1843.389448309745 Eh

Diagonalization of the overlap matrix:
Smallest eigenvalue                        ... 2.920e-08
Time for diagonalization                   ...    0.573 sec
Threshold for overlap eigenvalues          ... 1.000e-07
Number of eigenvalues below threshold      ... 1
Smallest eigenvalue above threshold        ... 1.642e-06

IMPORTANT:
Smallest eigenvalue of S below the DiffSThresh (1.000e-06) while
Thresh>1e-12 and/or TCut>1e-13! In order to avoid SCF convergence issues,
Thresh will be set to at least 1e-12 and TCut to at least 1e-13.
This can be turned off by adding %SCF DiffSThresh -1 END to the input.

Time for construction of square roots      ...    0.375 sec
Total time needed                          ...    1.011 sec

-------------------
DFT GRID GENERATION
-------------------

General Integration Accuracy     IntAcc      ... 4.959
Radial Grid Type                 RadialGrid  ... OptM3 with GC (2021)
Angular Grid (max. ang.)         AngularGrid ... 6 (Lebedev-590)
Angular grid pruning method      GridPruning ... 4 (adaptive)
Weight generation scheme         WeightScheme... mBecke (2022)
Basis function cutoff            BFCut       ... 1.0000e-10
Integration weight cutoff        WCut        ... 1.0000e-14
Partially contracted basis set               ... off
Rotationally invariant grid construction     ... off
Angular grids for H and He will be reduced by one unit
Diffuse basis detected: some atoms will have their outermost
                        angular grid increased by 1.

Total number of grid points                  ...   449850
Total number of batches                      ...     7052
Average number of points per batch           ...       63
Average number of grid points per atom       ...    12496
Initializing property integral containers    ... done (  0.1 sec)

SHARK setup successfully completed in 111.7 seconds

Maximum memory used throughout the entire STARTUP-calculation: 190.4 MB


           ************************************************************
           *        Program running with 104 parallel MPI-processes   *
           *              working on a common directory               *
           ************************************************************
-------------------------------------------------------------------------------
                                 ORCA GUESS
                   Start orbitals & Density for SCF / CASSCF
-------------------------------------------------------------------------------

------------
SCF SETTINGS
------------
Hamiltonian:
 Density Functional     Method          .... DFT(GTOs)
 Exchange Functional    Exchange        .... PBE
   PBE kappa parameter   XKappa         ....  0.804000
   PBE mue parameter    XMuePBE         ....  0.219520
 Correlation Functional Correlation     .... P86
 LDA part of GGA corr.  LDAOpt          .... VWN-5
 Gradients option       PostSCFGGA      .... off
 Hybrid DFT is turned on
   Fraction HF Exchange ScalHFX         ....  0.690000
   Scaling of DF-GGA-X  ScalDFX         ....  0.310000
   Scaling of DF-GGA-C  ScalDFC         ....  0.403800
   Scaling of DF-LDA-C  ScalLDAC        ....  0.403800
   Perturbative correction              ....  1.000000
 RI-approximation to the Coulomb term is turned on
   Number of AuxJK basis functions      .... 4056
   RI-JK (J+K treated both via RI)      .... on


General Settings:
 Integral files         IntName         .... compas3x_hc_c24h12_0pent_1_qz_riri
 Hartree-Fock type      HFTyp           .... RHF
 Total Charge           Charge          ....    0
 Multiplicity           Mult            ....    1
 Number of Electrons    NEL             ....  156
 Basis Dimension        Dim             .... 1728
 Nuclear Repulsion      ENuc            ....   1843.3894483097 Eh

Convergence Acceleration:
 AO-DIIS                CNVDIIS         .... on
   Start iteration      DIISMaxIt       ....    12
   Startup error        DIISStart       ....  0.200000
   # of expansion vecs  DIISMaxEq       ....     5
   Bias factor          DIISBfac        ....   1.050
   Max. coefficient     DIISMaxC        ....  10.000
 MO-DIIS                CNVKDIIS        .... off
 Trust-Rad. Augm. Hess. CNVTRAH         .... auto
   Auto Start mean grad. ratio tolernc. ....  1.125000
   Auto Start start iteration           ....    50
   Auto Start num. interpolation iter.  ....    10
   Max. Number of Micro iterations      ....    24
   Max. Number of Macro iterations      .... Maxiter - #DIIS iter
   Number of Davidson start vectors     ....     2
   Converg. threshold    (grad. norm)   ....   5.000e-05
   Grad. Scal. Fac. for Micro threshold ....   0.100
   Minimum threshold for Micro iter.    ....   1.000e-02
   NR start threshold (gradient norm)   ....   1.000e-04
   Initial trust radius                 ....   0.400
   Minimum AH scaling param. (alpha)    ....   1.000
   Maximum AH scaling param. (alpha)    .... 1000.000
   Quad. conv. algorithm                .... NR
   White noise on init. David. guess    .... on
   Maximum white noise                  ....   0.010
   Pseudo random numbers                .... off
   Inactive MOs                         .... canonical
   Orbital update algorithm             .... Taylor
   Preconditioner                       .... Diag
   Full preconditioner red. dimension   ....   250
 SOSCF                  CNVSOSCF        .... on
   Start iteration      SOSCFMaxIt      ....   150
   Startup grad/error   SOSCFStart      ....  0.003300
   Hessian update       SOSCFHessUp     .... L-BFGS
 Level Shifting         CNVShift        .... on
   Level shift para.    LevelShift      ....    0.2500
   Turn off err/grad.   ShiftErr        ....    0.0010
 Zerner damping         CNVZerner       .... off
 Static damping         CNVDamp         .... on
   Fraction old density DampFac         ....    0.7000
   Max. Damping (<1)    DampMax         ....    0.9800
   Min. Damping (>=0)   DampMin         ....    0.0000
   Turn off err/grad.   DampErr         ....    0.1000

SCF Procedure:
 Maximum # iterations   MaxIter         ....   125
 SCF integral mode      SCFMode         .... Direct
   Integral package                     .... SHARK and LIBINT hybrid scheme
 Reset frequency        DirectResetFreq ....    20
 Integral Threshold     Thresh          ....  1.000e-12 Eh
 Primitive CutOff       TCut            ....  1.000e-13 Eh

Convergence Tolerance:
 Convergence Check Mode ConvCheckMode   .... Total+1el-Energy
 Convergence forced     ConvForced      .... 0
 Energy Change          TolE            ....  1.000e-06 Eh
 1-El. energy change                    ....  1.000e-03 Eh
 Orbital Gradient       TolG            ....  5.000e-05
 Orbital Rotation angle TolX            ....  5.000e-05
 DIIS Error             TolErr          ....  1.000e-06

------------------------------
INITIAL GUESS: MODEL POTENTIAL
------------------------------
Loading Hartree-Fock densities                     ... done
Calculating cut-offs                               ... done
Initializing the effective Hamiltonian             ... done
Setting up the integral package (SHARK)            ... done
Starting the Coulomb interaction                   ... done (   0.4 sec)
Making the grid                                    ... done (   0.4 sec)
Mapping shells                                     ... done
Starting the XC term evaluation                    ... done (   0.2 sec)
  promolecular density results
     # of electrons  =    156.012607721
     EX              =   -126.501322770
     EC              =      0.192458119
     EX+EC           =   -126.308864651
Transforming the Hamiltonian                       ... done (   0.3 sec)
Diagonalizing the Hamiltonian                      ... done (   0.4 sec)
Back transforming the eigenvectors                 ... done (   0.2 sec)
Now organizing SCF variables                       ... done
                      ------------------
                      INITIAL GUESS DONE (   2.4 sec)
                      ------------------
             **** ENERGY FILE WAS UPDATED (compas3x_hc_c24h12_0pent_1_qz_riri.en.tmp) ****
Finished Guess after  19.2 sec
Maximum memory used throughout the entire GUESS-calculation: 192.3 MB


           ************************************************************
           *        Program running with 104 parallel MPI-processes   *
           *              working on a common directory               *
           ************************************************************

-------------------------------------------------------------------------------------------
                                      ORCA LEAN-SCF
                              memory conserving SCF solver
-------------------------------------------------------------------------------------------

----------------------------------------D-I-I-S--------------------------------------------
Iteration    Energy (Eh)           Delta-E    RMSDP     MaxDP     DIISErr   Damp  Time(sec)
-------------------------------------------------------------------------------------------
    1    -917.9496620958568656     0.00e+00  2.63e-04  2.27e-02  1.46e-01  0.700  15.5
    2    -917.7851359810122176     1.65e-01  2.27e-04  1.85e-02  1.31e-01  0.700  16.8
                               ***Turning on AO-DIIS***
    3    -917.8874470864986961    -1.02e-01  1.74e-04  1.53e-02  7.85e-02  0.700  15.7
    4    -918.0856498495347751    -1.98e-01  3.69e-04  4.30e-02  4.06e-02  0.000  14.4
    5    -918.4133003514696156    -3.28e-01  9.50e-05  9.71e-03  3.43e-02  0.000  15.5
    6    -918.4280309070975363    -1.47e-02  5.52e-05  6.41e-03  1.52e-02  0.000  15.2
    7    -918.4314311581740640    -3.40e-03  1.92e-05  1.69e-03  4.46e-03  0.000  14.6
                              *** Initializing SOSCF ***
---------------------------------------S-O-S-C-F--------------------------------------
Iteration    Energy (Eh)           Delta-E    RMSDP     MaxDP     MaxGrad    Time(sec)
--------------------------------------------------------------------------------------
    8    -918.4317592410168345    -3.28e-04  6.42e-06  4.87e-04  7.53e-04    16.9
    9    -918.4317813945310718    -2.22e-05  4.68e-06  3.49e-04  2.79e-04    14.5
   10    -918.4317852128026516    -3.82e-06  3.24e-06  2.23e-04  1.52e-04    13.6
   11    -918.4317858963447634    -6.84e-07  1.33e-06  9.43e-05  7.28e-05    14.9
                 **** Energy Check signals convergence ****

               *****************************************************
               *                     SUCCESS                       *
               *           SCF CONVERGED AFTER  11 CYCLES          *
               *****************************************************

             **** ENERGY FILE WAS UPDATED (compas3x_hc_c24h12_0pent_1_qz_riri.en.tmp) ****

----------------
TOTAL SCF ENERGY
----------------

Total Energy       :       -918.43178589634476 Eh          -24991.79945 eV

Components:
Nuclear Repulsion  :       1843.38944830974492 Eh           50161.17703 eV
Electronic Energy  :      -2761.82123420608968 Eh          -75152.97649 eV
One Electron Energy:      -4906.03246710375424 Eh         -133499.93044 eV
Two Electron Energy:       2144.21123289766456 Eh           58346.95395 eV

Virial components:
Potential Energy   :      -1834.84524949360230 Eh          -49928.67756 eV
Kinetic Energy     :        916.41346359725753 Eh           24936.87811 eV
Virial Ratio       :          2.00220241449876

DFT components:
N(Alpha)           :       77.999973859276 electrons
N(Beta)            :       77.999973859276 electrons
N(Total)           :      155.999947718552 electrons
E(X)               :      -39.862470057670 Eh       
E(C)               :       -2.335963459883 Eh       
E(XC)              :      -42.198433517553 Eh       

---------------
SCF CONVERGENCE
---------------

  Last Energy change         ...    6.8354e-07  Tolerance :   1.0000e-06
  Last MAX-Density change    ...    9.4266e-05  Tolerance :   1.0000e-05
  Last RMS-Density change    ...    1.3321e-06  Tolerance :   1.0000e-06
  Last DIIS Error            ...    7.5285e-04  Tolerance :   1.0000e-06
  Last Orbital Gradient      ...    7.2823e-05  Tolerance :   5.0000e-05
  Last Orbital Rotation      ...    1.5679e-04  Tolerance :   5.0000e-05


----------------
ORBITAL ENERGIES
----------------

  NO   OCC          E(Eh)            E(eV) 
   0   2.0000     -10.832609      -294.7703 
   1   2.0000     -10.832323      -294.7625 
   2   2.0000     -10.832322      -294.7625 
   3   2.0000     -10.831996      -294.7536 
   4   2.0000     -10.831994      -294.7535 
   5   2.0000     -10.831934      -294.7519 
   6   2.0000     -10.831523      -294.7407 
   7   2.0000     -10.831408      -294.7376 
   8   2.0000     -10.831406      -294.7375 
   9   2.0000     -10.830873      -294.7230 
  10   2.0000     -10.830872      -294.7230 
  11   2.0000     -10.830501      -294.7129 
  12   2.0000     -10.824742      -294.5562 
  13   2.0000     -10.824727      -294.5558 
  14   2.0000     -10.824726      -294.5558 
  15   2.0000     -10.824695      -294.5549 
  16   2.0000     -10.824694      -294.5549 
  17   2.0000     -10.824678      -294.5545 
  18   2.0000     -10.823557      -294.5239 
  19   2.0000     -10.823542      -294.5236 
  20   2.0000     -10.823540      -294.5235 
  21   2.0000     -10.823513      -294.5228 
  22   2.0000     -10.823511      -294.5227 
  23   2.0000     -10.823498      -294.5223 
  24   2.0000      -1.106747       -30.1161 
  25   2.0000      -1.063772       -28.9467 
  26   2.0000      -1.063770       -28.9467 
  27   2.0000      -1.008569       -27.4446 
  28   2.0000      -1.008569       -27.4445 
  29   2.0000      -0.989264       -26.9192 
  30   2.0000      -0.952396       -25.9160 
  31   2.0000      -0.935915       -25.4675 
  32   2.0000      -0.915679       -24.9169 
  33   2.0000      -0.915678       -24.9169 
  34   2.0000      -0.877649       -23.8820 
  35   2.0000      -0.877649       -23.8820 
  36   2.0000      -0.782375       -21.2895 
  37   2.0000      -0.782374       -21.2895 
  38   2.0000      -0.780902       -21.2494 
  39   2.0000      -0.780902       -21.2494 
  40   2.0000      -0.768994       -20.9254 
  41   2.0000      -0.698474       -19.0064 
  42   2.0000      -0.688235       -18.7278 
  43   2.0000      -0.667610       -18.1666 
  44   2.0000      -0.667610       -18.1666 
  45   2.0000      -0.660177       -17.9643 
  46   2.0000      -0.639767       -17.4089 
  47   2.0000      -0.589632       -16.0447 
  48   2.0000      -0.589631       -16.0447 
  49   2.0000      -0.573329       -15.6011 
  50   2.0000      -0.573328       -15.6011 
  51   2.0000      -0.569273       -15.4907 
  52   2.0000      -0.569273       -15.4907 
  53   2.0000      -0.534498       -14.5444 
  54   2.0000      -0.531031       -14.4501 
  55   2.0000      -0.527503       -14.3541 
  56   2.0000      -0.527503       -14.3541 
  57   2.0000      -0.524076       -14.2608 
  58   2.0000      -0.507813       -13.8183 
  59   2.0000      -0.507812       -13.8183 
  60   2.0000      -0.479038       -13.0353 
  61   2.0000      -0.479037       -13.0352 
  62   2.0000      -0.473864       -12.8945 
  63   2.0000      -0.473103       -12.8738 
  64   2.0000      -0.459107       -12.4929 
  65   2.0000      -0.456349       -12.4179 
  66   2.0000      -0.456349       -12.4179 
  67   2.0000      -0.411230       -11.1901 
  68   2.0000      -0.411230       -11.1901 
  69   2.0000      -0.406801       -11.0696 
  70   2.0000      -0.406800       -11.0696 
  71   2.0000      -0.390963       -10.6386 
  72   2.0000      -0.336881        -9.1670 
  73   2.0000      -0.325551        -8.8587 
  74   2.0000      -0.308242        -8.3877 
  75   2.0000      -0.308241        -8.3877 
  76   2.0000      -0.243932        -6.6377 
  77   2.0000      -0.243932        -6.6377 
  78   0.0000       0.006412         0.1745 
  79   0.0000       0.006412         0.1745 
  80   0.0000       0.051627         1.4048 
  81   0.0000       0.051627         1.4049 
  82   0.0000       0.069153         1.8818 
  83   0.0000       0.075949         2.0667 
  84   0.0000       0.081277         2.2117 
  85   0.0000       0.081278         2.2117 
  86   0.0000       0.094130         2.5614 
  87   0.0000       0.094131         2.5614 
  88   0.0000       0.107103         2.9144 
*Only the first 10 virtual orbitals were printed.
-------
TIMINGS
-------

Total SCF time: 0 days 0 hours 3 min 5 sec 

Total time                  ....     185.623 sec
Sum of individual times     ....     185.141 sec  ( 99.7%)

SCF preparation             ....      16.221 sec  (  8.7%)
Fock matrix formation       ....     140.611 sec  ( 75.8%)
  Startup                   ....       2.960 sec  (  2.1% of F)
  RI-JK                     ....     119.536 sec  ( 85.0% of F)
  XC integration            ....      11.498 sec  (  8.2% of F)
    XC Preparation          ....       0.000 sec  (  0.0% of XC)
    Basis function eval.    ....       0.932 sec  (  8.1% of XC)
    Density eval.           ....       2.266 sec  ( 19.7% of XC)
    XC-Functional eval.     ....       0.028 sec  (  0.2% of XC)
    XC-Potential eval.      ....       3.515 sec  ( 30.6% of XC)
Diagonalization             ....       0.000 sec  (  0.0%)
Density matrix formation    ....       4.866 sec  (  2.6%)
Total Energy calculation    ....       2.609 sec  (  1.4%)
Population analysis         ....       0.000 sec  (  0.0%)
Orbital Transformation      ....       2.549 sec  (  1.4%)
Orbital Orthonormalization  ....       0.000 sec  (  0.0%)
DIIS solution               ....      14.517 sec  (  7.8%)
SOSCF solution              ....       3.593 sec  (  1.9%)
Finished LeanSCF after 186.4 sec

Maximum memory used throughout the entire LEANSCF-calculation: 557.7 MB


           ************************************************************
           *        Program running with 104 parallel MPI-processes   *
           *              working on a common directory               *
           ************************************************************

------------------------------------------------------------------------------
                                ORCA  MP2 
------------------------------------------------------------------------------


-------------
RI-MP2 ENERGY
-------------
Dimension of the orbital basis            ... 1728
Dimension of the AuxC basis               ... 4056
Memory devoted to MP2                     ... 4096 MB   
Data format for matrix containers         ... DOUBLE
Compression type for matrix containers    ... UNCOMPRESSED
Scaling for aa/bb pairs                   ...   5.710e-02
Scaling for ab pairs                      ...   5.979e-01
Overall scaling of the MP2 energy         ...   1.000e+00

-----------------------
SHARK RI TRANSFORMATION
-----------------------

Number of basis functions                ...   1728
Number of aux functions                  ...   4056
Number of operators                      ...      1
Generation of IJK                        ... NO
Generation of IAK                        ... YES
Generation of ABK                        ... NO
Orbital Range Operator  0:    0-  77 to   78-1727

Aux basis identifier                     ...   AUXC
Contraction scheme used                  ... SEGMENTED
Do orthogonalization                     ... YES
All operator combinations                ... NO
Transpose (ia|K)                         ... NO
Integral generator used                  ... LIBINT
Starting integral generation + trafo... 
Half trafo (segmented) done. Total time =  4.7 sec. integrals=  1.2 sec trafo=  2.9 sec
Integral generation and half transformation done (  4.7 sec)

Reading or making V^(-1/2)          ... done (  0.4 sec)
Sorting IAK integrals               ... done (  5.4 sec)

SHARK RI integral transformation done. Total time = 10.6 sec.

Opening buffers                              ... done

Starting loop over batches of integrals:

Operator 0  - window                       ... (  0- 77)x( 78-1727)
Operator 0  - Memory available             ...  4096 MB
Operator 0  - Memory needed per MO         ...  51.1 MB
Operator 0  - Number of orbitals per batch ... 1
Operator 0  - Number of batches            ... 1

OPERATOR  0   PASS   0:  MOs     0 ...    0 +    1 ...    1 +    2 ...    2 +    3 ...    3
                            +    4 ...    4 +    5 ...    5 +    6 ...    6 +    7 ...    7
                            +    8 ...    8 +    9 ...    9 +   10 ...   10 +   11 ...   11
                            +   12 ...   12 +   13 ...   13 +   14 ...   14 +   15 ...   15
                            +   16 ...   16 +   17 ...   17 +   18 ...   18 +   19 ...   19
                            +   20 ...   20 +   21 ...   21 +   22 ...   22 +   23 ...   23
                            +   24 ...   24 +   25 ...   25 +   26 ...   26 +   27 ...   27
                            +   28 ...   28 +   29 ...   29 +   30 ...   30 +   31 ...   31
                            +   32 ...   32 +   33 ...   33 +   34 ...   34 +   35 ...   35
                            +   36 ...   36 +   37 ...   37 +   38 ...   38 +   39 ...   39
                            +   40 ...   40 +   41 ...   41 +   42 ...   42 +   43 ...   43
                            +   44 ...   44 +   45 ...   45 +   46 ...   46 +   47 ...   47
                            +   48 ...   48 +   49 ...   49 +   50 ...   50 +   51 ...   51
                            +   52 ...   52 +   53 ...   53 +   54 ...   54 +   55 ...   55
                            +   56 ...   56 +   57 ...   57 +   58 ...   58 +   59 ...   59
                            +   60 ...   60 +   61 ...   61 +   62 ...   62 +   63 ...   63
                            +   64 ...   64 +   65 ...   65 +   66 ...   66 +   67 ...   67
                            +   68 ...   68 +   69 ...   69 +   70 ...   70 +   71 ...   71
                            +   72 ...   72 +   73 ...   73 +   74 ...   74 +   75 ...   75
                            +   76 ...   76 +   77 ...   77
  Reading integrals       ... ok
Time spent in pair loops =    36.045 sec

-----------------------------------------------
 RI-MP2 CORRELATION ENERGY:     -2.345211782 Eh
-----------------------------------------------


-------
TIMINGS
-------

Total time                :   49.381 sec
Integral trafo            :   10.869 sec ( 22.0%)
I/O of integrals          :    0.052 sec (  0.1%)
K(i,j) operators          :    0.380 sec (  0.8%)
T(i,j) pair energies      :    0.068 sec (  0.1%)
V**(-1/2)                 :    2.465 sec (  5.0%)


---------------------------------------
MP2 TOTAL ENERGY:     -920.776997678 Eh
---------------------------------------

Maximum memory used throughout the entire MP2-calculation: 383.5 MB


-------------------------------------------------------------------------------
                          DFT DISPERSION CORRECTION                            
                                                                               
                                DFTD4 V3.4.0                                   
-------------------------------------------------------------------------------
The REV-DSD-PBEP86-2021 functional is recognized
A user input s6-coefficient scaling factor has been recognized
A user input a1-coefficient scaling factor has been recognized
A user input s8-coefficient scaling factor has been recognized
A user input a2-coefficient scaling factor has been recognized
A user input s9-coefficient scaling factor has been recognized
Active option DFTDOPT                   ...         5   

-------------------------   ----------------
Dispersion correction           -0.038935788
-------------------------   ----------------


-------------------------   --------------------
FINAL SINGLE POINT ENERGY      -920.815933466026
-------------------------   --------------------



           ************************************************************
           *        Program running with 104 parallel MPI-processes   *
           *              working on a common directory               *
           ************************************************************

------------------------------------------------------------------------------
                              ORCA PROPERTY CALCULATIONS
------------------------------------------------------------------------------

GBWName                                 ... compas3x_hc_c24h12_0pent_1_qz_riri.gbw
Number of atoms                         ...     36
Number of basis functions               ...   1728
Max core memory                         ...   1024 MB

Electric properties:
Dipole moment                           ... YES
Quadrupole moment                       ...  NO
Static polarizability (Dipole/Dipole)   ...  NO
Static polarizability (Dipole/Quad.)    ...  NO
Static polarizability (Quad./Quad.)     ...  NO
Static polarizability (Velocity)        ...  NO

Atomic electric properties:
Dipole moment                           ...  NO
Quadrupole moment                       ...  NO
Static polarizability                   ...  NO

Choice of electric origin               ... Center of mass
Position of electric origin             ...     0.000105     0.000052     0.000054

General magnetic properties:
Magnetizability                         ...  NO

EPR properties:
g-Tensor (aka g-matrix)                 ...  NO
Zero-Field splitting spin-orbit         ...  NO
Zero-field splitting spin-spin          ...  NO
Hyperfine couplings                     ...  NO (   0 nuclei)
Quadrupole couplings                    ...  NO (   0 nuclei)
Contact density                         ...  NO (   0 nuclei)

NMR properties:
Chemical shifts                         ...  NO (   0 nuclei)
Spin-rotation constants                 ...  NO (   0 nuclei)
Spin-spin couplings                     ...  NO (   0 nuclei,    0 pairs)

Choice of magnetic origin               ... GIAO
Position of magnetic origin             ...     0.000000     0.000000     0.000000

Properties with geometric perturbations:
SCF Hessian                             ...  NO
IR spectrum                             ...  NO
VCD spectrum                            ...  NO
X-ray spectroscopy properties:
SCF XES/XAS/RIXS spectra                ...  NO


-------------
DIPOLE MOMENT
-------------

Method             : SCF
Type of density    : Electron Density
Multiplicity       :   1
Irrep              :   0
Energy             :  -918.4317858963447634 Eh
Relativity type    : 
Basis              : AO
                                X                 Y                 Z
Electronic contribution:     -0.000004493      -0.000001576       0.000022283
Nuclear contribution   :      0.000004045       0.000001699      -0.000033879
                        -----------------------------------------
Total Dipole Moment    :     -0.000000448       0.000000124      -0.000011596
                        -----------------------------------------
Magnitude (a.u.)       :      0.000011605
Magnitude (Debye)      :      0.000029497



--------------------
Rotational spectrum 
--------------------
 
Rotational constants in cm-1:             0.011275             0.011275             0.005638 
Rotational constants in MHz :           338.020484           338.020428           169.010276 

Dipole components along the rotational axes: 
x,y,z [a.u.] :    -0.000000     0.000000    -0.000012 
x,y,z [Debye]:    -0.000001     0.000000    -0.000029 

 

Dipole moment calculation done in   0.4 sec 

Maximum memory used throughout the entire PROP-calculation: 212.5 MB

--------------------------------
SUGGESTED CITATIONS FOR THIS RUN
--------------------------------

Below you find a list of papers that are relevant to this ORCA run
We neither can nor want to force you to cite these papers, but we appreciate if you do
You receive ORCA, which is the product of decades of hard work by many enthusiastic individuals, for free
The only thing we kindly ask in return is that you cite our papers,
We deeply appreciate it, if you show your appreciation for ORCA by not just citing the generic ORCA reference.

Please note that relegating all ORCA citations to the supporting information does *not* help us.
SI sections are not indexed - citations you put there will not count into any citation statistics
But we need these citations in order to attract the funding resources that allow us to do what we are doing

Therefore, if you are a happy ORCA user, please consider citing a few of the papers listed below in the main body of your paper

In addition to the list printed below, the program has created the file compas3x_hc_c24h12_0pent_1_qz_riri.bibtex that contains the list in bibtex format
You can import this file easily into all common literature databanks and citation aid programs


List of essential papers. We consider these as the minimum necessary citations

  1. Neese,F.
     Software update: the ORCA program system, version 5.0
     WIRES Comput. Molec. Sci., 2022 12(1)e1606
     doi.org/10.1002/wcms.1606

List of papers to cite with high priority. The work reported in these papers was absolutely
necessary for this run to complete.
Our perspective: the developers of density functionals and basis sets usually get cited in chemistry papers
Good! But without the algorithms to do something with them, the functionals or basis sets would not do anything.
Hence, in our opinion, the algorithm design and method developments papers are equally worthy of getting cited

  1. Neese,F.
     An improvement of the resolution of the identity approximation for the formation of the Coulomb matrix
     J. Comp. Chem., 2003 24(14)1740-1747
     doi.org/10.1002/jcc.10318
  2. Kossmann,S.; Neese,F.
     Comparison of two efficient approximate Hartee-Fock approaches
     Chem. Phys. Lett., 2009 481 240-243
     doi.org/10.1016/j.cplett.2009.09.073
  3. Neese,F.
     The SHARK Integral Generation and Digestion System
     J. Comp. Chem., 2022  1-16
     doi.org/10.1002/jcc.26942
  4. Caldeweyher,E.; Bannwarth,C.; Grimme,S.
     Extension of the D3 dispersion coefficient model
     J. Chem. Phys., 2017 147 034112
     doi.org/10.1063/1.4993215
  5. Caldeweyher,E.; Ehlert,S.; Hansen,A.; Neugebauer,H.; Spicher,S.; Bannwarth,C.; Grimme,S.
     A generally applicable atomic-charge dependent London dispersion correction
     J. Chem. Phys., 2019 150 154122
     doi.org/10.1063/1.5090222
  6. Caldeweyher,E.; Mewes,J.; Ehlert,S.; Grimme,S.
     Extension and evaluation of the D4 London-dispersion model for periodic systems
     Phys. Chem. Chem. Phys., 2020 22(16)8499-8512
     doi.org/10.1039/D0CP00502A
  7. Wittmann,L.; Gordiy,I.; Friede,M.; Helmich-Paris,B.; Grimme,S.; Hansen,A.; Bursch,M.
     Extension of the D3 and D4 London Dispersion Corrections to the full Actinides Series
     Phys. Chem. Chem. Phys., 2024 26(32)21379-21394
     doi.org/https://doi.org/10.1039/D4CP01514B 

List of suggested additional citations. These are papers that are important in the 'surrounding' of 
of this run, or papers that preceded the highly important papers. If you like your results we are grateful for a citation.

  1. Neese,F.
     The ORCA program system
     WIRES Comput. Molec. Sci., 2012 2(1)73-78
     doi.org/10.1002/wcms.81
  2. Neese,F.
     Software update: the ORCA program system, version 4.0
     WIRES Comput. Molec. Sci., 2018 8(1)1-6
     doi.org/10.1002/wcms.1327
  3. Neese,F.; Wennmohs,F.; Becker,U.; Riplinger,C.
     The ORCA quantum chemistry program package
     J. Chem. Phys., 2020 152 Art. No. L224108
     doi.org/10.1063/5.0004608

List of optional additional citations

  1. Neese,F.
     Approximate second-order SCF convergence for spin unrestricted wavefunctions
     Chem. Phys. Lett., 2000 325(1-3)93-98
     doi.org/10.1016/s0009-2614(00)00662-x

Timings for individual modules:

Sum of individual times          ...      516.008 sec (=   8.600 min)
Startup calculation              ...      128.655 sec (=   2.144 min)  24.9 %
SCF iterations                   ...      208.212 sec (=   3.470 min)  40.4 %
Property calculations            ...      111.774 sec (=   1.863 min)  21.7 %
MP2 module                       ...       67.367 sec (=   1.123 min)  13.1 %
                             ****ORCA TERMINATED NORMALLY****
TOTAL RUN TIME: 0 days 0 hours 9 minutes 7 seconds 556 msec
