
                                 *****************
                                 * O   R   C   A *
                                 *****************

                                            #,                                       
                                            ###                                      
                                            ####                                     
                                            #####                                    
                                            ######                                   
                                           ########,                                 
                                     ,,################,,,,,                         
                               ,,#################################,,                 
                          ,,##########################################,,             
                       ,#########################################, ''#####,          
                    ,#############################################,,   '####,        
                  ,##################################################,,,,####,       
                ,###########''''           ''''###############################       
              ,#####''   ,,,,##########,,,,          '''####'''          '####       
            ,##' ,,,,###########################,,,                        '##       
           ' ,,###''''                  '''############,,,                           
         ,,##''                                '''############,,,,        ,,,,,,###''
      ,#''                                            '''#######################'''  
     '                                                          ''''####''''         
             ,#######,   #######,   ,#######,      ##                                
            ,#'     '#,  ##    ##  ,#'     '#,    #''#        ,####,   ,####,        
            ##       ##  ##   ,#'  ##            #'  '#       #'       #'  '#        
            ##       ##  #######   ##           ,######,      #####,   #    #        
            '#,     ,#'  ##    ##  '#,     ,#' ,#      #,     #,   #   #,  ,#        
             '#######'   ##     ##  '#######'  #'      '#     '####' # '####'        



                #########################################################
                #                        -***-                          #
                #          Department of theory and spectroscopy        #
                #                                                       #
                #                      Frank Neese                      #
                #                                                       #
                #     Directorship, Architecture, Infrastructure        #
                #                    SHARK, DRIVERS                     #
                #        Core code/Algorithms in most modules           #
                #                                                       #
                #        Max Planck Institute fuer Kohlenforschung      #
                #                Kaiser Wilhelm Platz 1                 #
                #                 D-45470 Muelheim/Ruhr                 #
                #                      Germany                          #
                #                                                       #
                #                  All rights reserved                  #
                #                        -***-                          #
                #########################################################


                         Program Version 6.0.1  -  RELEASE   -


 With contributions from (in alphabetic order):
[Max-Planck-Institut fuer Kohlenforschung]                               
  Daniel Aravena         : Magnetic Suceptibility                        
  Michael Atanasov       : Ab Initio Ligand Field Theory (pilot matlab implementation)
  Alexander A. Auer      : GIAO ZORA, VPT2 properties, NMR spectrum      
  Ute Becker             : All parallelization in ORCA, NUMFREQ, NUMCALC 
  Giovanni Bistoni       : ED, misc. LED, open-shell LED, HFLD           
  Martin Brehm           : Molecular dynamics                            
  Dmytro Bykov           : pre 5.0 version of the SCF Hessian            
  Marcos Casanova-Páez   : Triplet and SCS-CIS(D). UHF-(DLPNO)-IP/EA/STEOM-CCSD. UHF-CVS-IP/STEOM-CCSD   
  Vijay G. Chilkuri      : MRCI spin determinant printing, contributions to CSF-ICE 
  Pauline Colinet        : FMM embedding                                 
  Dipayan Datta          : RHF DLPNO-CCSD density                        
  Achintya Kumar Dutta   : EOM-CC, STEOM-CC                              
  Nicolas Foglia         : Exact transition moments, OPA infrastructure, MCD improvements    
  Dmitry Ganyushin       : Spin-Orbit,Spin-Spin,Magnetic field MRCI      
  Miquel Garcia-Rates    : C-PCM and meta-GGA Hessian, CCSD/C-PCM, Gaussian charge scheme 
  Tiago L. C. Gouveia    : GS-ROHF, GS-ROCIS                             
  Yang Guo               : DLPNO-NEVPT2, F12-NEVPT2, CIM, IAO-localization        
  Andreas Hansen         : Spin unrestricted coupled pair/coupled cluster methods 
  Ingolf Harden          : AUTO-CI MPn and infrastructure                
  Benjamin Helmich-Paris : MC-RPA, TRAH-(SCF,CASSCF), AVAS, COSX integrals, SCF dyn. polar. 
  Lee Huntington         : MR-EOM, pCC                                   
  Robert Izsak           : Overlap fitted RIJCOSX, COSX-SCS-MP3, EOM     
  Riya Kayal             : Wick's Theorem for AUTO-CI, AUTO-CI UHF-CCSDT 
  Emily Kempfer          : AUTO-CI, RHF CISDT and CCSDT                  
  Christian Kollmar      : KDIIS, OOCD, Brueckner-CCSD(T), CCSD density, CASPT2, CASPT2-K, improved NEVPT2 
  Axel Koslowski         : Symmetry handling                             
  Simone Kossmann        : meta-GGA functionals, TD-DFT gradient, OOMP2, (MP2 Hessian; deprecated post 5.0) 
  Lucas Lang             : DCDCAS                                        
  Marvin Lechner         : AUTO-CI (C++ implementation), FIC-MRCC        
  Spencer Leger          : CASSCF response                               
  Dagmar Lenk            : GEPOL surface, SMD, ORCA-2-JSON               
  Dimitrios Liakos       : Extrapolation schemes; Compound Job, initial MDCI parallelization 
  Dimitrios Manganas     : Further ROCIS development; embedding schemes. LFT, Crystal Embedding 
  Dimitrios Pantazis     : SARC Basis sets                               
  Anastasios Papadopoulos: AUTO-CI, single reference methods and gradients 
  Taras Petrenko         : pre 6.0 DFT Hessian and TD-DFT gradient, (ASA, deprecated), ECA, 1-Electron XAS/XES, NRVS 
  Peter Pinski           : DLPNO-MP2, DLPNO-MP2 Gradient                 
  Christoph Reimann      : Effective Core Potentials                     
  Marius Retegan         : Local ZFS, SOC                                
  Christoph Riplinger    : Optimizer, TS searches, QM/MM, DLPNO-CCSD(T), (RO)-DLPNO pert. Triples 
  Michael Roemelt        : Original ROCIS implementation                 
  Masaaki Saitow         : Open-shell DLPNO-CCSD energy and density      
  Barbara Sandhoefer     : DKH picture change effects                    
  Kantharuban Sivalingam : CASSCF convergence/infrastructure, NEVPT2 and variants, FIC-MRCI 
  Bernardo de Souza      : ESD, SOC TD-DFT                               
  Georgi L. Stoychev     : AutoAux, RI-MP2 NMR, DLPNO-MP2 response, X2C  
  Van Anh Tran           : RI-MP2 g-tensors                              
  Willem Van den Heuvel  : Paramagnetic NMR                              
  Zikuan Wang            : NOTCH, Electric field optimization            
  Frank Wennmohs         : Technical directorship and infrastructure     
  Hang Xu                : AUTO-CI-Response properties                   
                                                                         
[FACCTs GmbH]                                                            
  Markus Bursch, Miquel Garcia-Rates, Christoph Riplinger, Bernardo de Souza, Georgi L. Stoychev 
                                                                 
  APM, Basis sets (HGBS, AHGBS, def-TZVP (Ac-Lr), def2-XVPD (La-Lu)), CI-OPT, improved COSX, DLPNO-Multilevel,           
  DOCKER, DRACO, updates on ESD, GOAT, IRC, LR-CPCM, MBIS, meta-GGA TD-DFT gradient, ML-optimized integration grids, 
  MM, NACMEs, nearIR, NEB, NEB-TS, NL-DFT gradient (VV10), 2- and 3-layer-ONIOM, interface openCOSMO-RS, QMMM,   
  Crystal-QMMM, SF, symmetry and pop. for TD-DFT, r2SCAN hybrids, SOLVATOR                                   
                                                                         
[Other institutions]                                                     
  V. Asgeirsson          : NEB                                           
  Christoph Bannwarth    : sTDA-DFT, sTD-DFT, PBEh-3c, B97-3c, D3        
  Sebastian Ehlert       : rSCAN, r2SCAN, r2SCAN-3c, D4, dhf basis sets  
  Marvin Friede          : D4 for Fr, Ra, Ac-Lr                          
  Lars Goerigk           : TD-DFT with DH, B97 family of functionals     
  Stefan Grimme          : VdW corrections, initial TS optimization, DFT functionals, gCP, sTDA/sTD-DF 
  Waldemar Hujo          : DFT-NL                                        
  H. Jonsson             : NEB                                           
  Holger Kruse           : gCP                                           
  Marcel Mueller         : wB97X-3c, vDZP basis set                      
  Hagen Neugebauer       : wr2SCAN                                       
  Tobias Risthaus        : range-separated hybrid DFT                    
  Lukas Wittmann         : regularized MP2, r2SCAN double-hybrids, wr2SCAN        
                                                                         
We gratefully acknowledge several colleagues who have allowed us to      
interface, adapt or use parts of their codes:                            
  Ed Valeev, F. Pavosevic, A. Kumar             : LibInt (2-el integral package), F12 methods 
  Garnet Chan, S. Sharma, J. Yang, R. Olivares  : DMRG                   
  Ulf Ekstrom                                   : XCFun DFT Library      
  Mihaly Kallay                                 : mrcc  (arbitrary order and MRCC methods)
  Frank Weinhold                                : gennbo (NPA and NBO analysis)           
  Simon Mueller                                 : openCOSMO-RS                            
  Christopher J. Cramer and Donald G. Truhlar   : smd solvation model                     
  S Lehtola, MJT Oliveira, MAL Marques          : LibXC Library                           
  Liviu Ungur et al                             : ANISO software                          


 Your calculation uses the libint2 library for the computation of 2-el integrals
 For citations please refer to: http://libint.valeyev.net

 Your ORCA version has been built with support for libXC version: 6.2.2
 For citations please refer to: https://libxc.gitlab.io

 This ORCA versions uses:
   CBLAS   interface :  Fast vector & matrix operations
   LAPACKE interface :  Fast linear algebra routines
   SCALAPACK package :  Parallel linear algebra routines
   Shared memory     :  Shared parallel matrices
   BLAS/LAPACK       :  OpenBLAS 0.3.27  USE64BITINT DYNAMIC_ARCH NO_AFFINITY SapphireRapids SINGLE_THREADED
        Core in use  :  SapphireRapids
   Copyright (c) 2011-2014, The OpenBLAS Project




***************************************
The coordinates will be read from file: /scratch/kx58/rs2200/dhdft/inputs/compas3x-xyzs/hc_c24h14_0pent_2.xyz
***************************************


Your calculation utilizes the atom-pairwise dispersion correction
based on EEQ partial charges (D4)


================================================================================

----- Orbital basis set information -----
Your calculation utilizes the basis: def2-SVP
   F. Weigend and R. Ahlrichs, Phys. Chem. Chem. Phys. 7, 3297 (2005).

================================================================================
                                        WARNINGS
                       Please study these warnings very carefully!
================================================================================


WARNING: No MP2 level density has been requested!
         To calculate MP2 level properties use
         %mp2 Density relaxed end
         or
         %mp2 Density unrelaxed end
         Otherwise for double-hybrid DFT only the energy is correct!

================================================================================
                                       INPUT FILE
================================================================================
NAME = compas3x_hc_c24h14_0pent_2_dz_nori.inp
|  1> ! RKS revDSD-PBEP86-D4/2021 defgrid3  NORI NOPOP NoFrozencore NoUseSym
|  2> 
|  3> %basis
|  4> Basis "def2-SVP"
|  5> 
|  6> 
|  7> end
|  8> 
|  9> %method
| 10> ScalHFX 0.69
| 11> ScalDFX 0.31
| 12> ScalDFC 0.4038
| 13> ScalLDAC 0.4038
| 14> 
| 15> D4S6 0.4612
| 16> D4S8 0.0
| 17> D4A1 0.44
| 18> D4A2 3.60
| 19> end
| 20> 
| 21> %mp2
| 22> PS 0.5979
| 23> PT 0.0571
| 24> MaxCore 45000
| 25> Q1Opt 1
| 26> 
| 27> end
| 28> 
| 29> %pal
| 30> nprocs 10
| 31> end
| 32> 
| 33> *XYZFILE 0 1 /scratch/kx58/rs2200/dhdft/inputs/compas3x-xyzs/hc_c24h14_0pent_2.xyz
| 34> 
| 35>                          ****END OF INPUT****
================================================================================

                       ****************************
                       * Single Point Calculation *
                       ****************************

---------------------------------
CARTESIAN COORDINATES (ANGSTROEM)
---------------------------------
  C      2.253740   -0.108310   -0.213590
  C      1.343849   -1.175081   -0.401665
  C     -0.058486   -0.963802   -0.257558
  C     -0.553573    0.303623    0.082639
  C      0.329413    1.438105   -0.066354
  C      1.727139    1.239028   -0.139567
  C      3.618704   -0.395028   -0.191316
  C      4.086866   -1.677566   -0.413738
  C      3.206816   -2.708482   -0.672838
  C      1.831669   -2.478674   -0.660528
  C      0.902656   -3.541274   -0.886404
  C     -0.426667   -3.340518   -0.782343
  C     -0.954121   -2.063661   -0.417427
  C     -2.306610   -1.871702   -0.216711
  C     -2.794287   -0.669744    0.313364
  C     -1.899157    0.415352    0.538136
  C     -0.172664    2.734240   -0.258781
  C      0.665247    3.817281   -0.377622
  C      2.042714    3.634056   -0.325157
  C      2.558281    2.362362   -0.239575
  C     -4.152742   -0.533928    0.678799
  C     -4.598678    0.583738    1.321981
  C     -3.688967    1.593775    1.669985
  C     -2.377659    1.510752    1.289835
  H      4.335923    0.386564    0.003083
  H      5.150230   -1.867905   -0.394328
  H      3.574380   -3.705818   -0.867320
  H      1.300138   -4.515990   -1.131847
  H     -1.126428   -4.148618   -0.942061
  H     -2.997409   -2.681417   -0.406498
  H     -1.236392    2.876563   -0.369590
  H      0.255128    4.805183   -0.527480
  H      2.705830    4.483375   -0.399765
  H      3.628365    2.236190   -0.283425
  H     -4.825276   -1.352338    0.464193
  H     -5.636915    0.679109    1.604182
  H     -4.028996    2.435417    2.255673
  H     -1.682061    2.267145    1.619618

----------------------------
CARTESIAN COORDINATES (A.U.)
----------------------------
  NO LB      ZA    FRAG     MASS         X           Y           Z
   0 C     6.0000    0    12.011    4.258951   -0.204676   -0.403627
   1 C     6.0000    0    12.011    2.539507   -2.220581   -0.759036
   2 C     6.0000    0    12.011   -0.110522   -1.821323   -0.486715
   3 C     6.0000    0    12.011   -1.046101    0.573763    0.156164
   4 C     6.0000    0    12.011    0.622500    2.717625   -0.125391
   5 C     6.0000    0    12.011    3.263820    2.341423   -0.263744
   6 C     6.0000    0    12.011    6.838360   -0.746495   -0.361535
   7 C     6.0000    0    12.011    7.723057   -3.170141   -0.781851
   8 C     6.0000    0    12.011    6.060004   -5.118289   -1.271480
   9 C     6.0000    0    12.011    3.461353   -4.684016   -1.248217
  10 C     6.0000    0    12.011    1.705772   -6.692038   -1.675061
  11 C     6.0000    0    12.011   -0.806284   -6.312663   -1.478415
  12 C     6.0000    0    12.011   -1.803027   -3.899755   -0.788822
  13 C     6.0000    0    12.011   -4.358862   -3.537005   -0.409525
  14 C     6.0000    0    12.011   -5.280438   -1.265633    0.592173
  15 C     6.0000    0    12.011   -3.588887    0.784902    1.016930
  16 C     6.0000    0    12.011   -0.326287    5.166964   -0.489025
  17 C     6.0000    0    12.011    1.257135    7.213616   -0.713603
  18 C     6.0000    0    12.011    3.860170    6.867371   -0.614457
  19 C     6.0000    0    12.011    4.834450    4.464216   -0.452732
  20 C     6.0000    0    12.011   -7.847544   -1.008978    1.282744
  21 C     6.0000    0    12.011   -8.690242    1.103104    2.498181
  22 C     6.0000    0    12.011   -6.971138    3.011799    3.155815
  23 C     6.0000    0    12.011   -4.493125    2.854908    2.437435
  24 H     1.0000    0     1.008    8.193707    0.730500    0.005827
  25 H     1.0000    0     1.008    9.732525   -3.529829   -0.745172
  26 H     1.0000    0     1.008    6.754599   -7.002982   -1.638998
  27 H     1.0000    0     1.008    2.456905   -8.533984   -2.138881
  28 H     1.0000    0     1.008   -2.128640   -7.839753   -1.780237
  29 H     1.0000    0     1.008   -5.664283   -5.067144   -0.768169
  30 H     1.0000    0     1.008   -2.336442    5.435917   -0.698424
  31 H     1.0000    0     1.008    0.482122    9.080480   -0.996793
  32 H     1.0000    0     1.008    5.113278    8.472352   -0.755446
  33 H     1.0000    0     1.008    6.856615    4.225787   -0.535596
  34 H     1.0000    0     1.008   -9.118449   -2.555549    0.877197
  35 H     1.0000    0     1.008  -10.652225    1.283330    3.031464
  36 H     1.0000    0     1.008   -7.613698    4.602271    4.262604
  37 H     1.0000    0     1.008   -3.178635    4.284282    3.060634

--------------------------------
INTERNAL COORDINATES (ANGSTROEM)
--------------------------------
 C      0   0   0     0.000000000000     0.00000000     0.00000000
 C      1   0   0     1.414663637289     0.00000000     0.00000000
 C      2   1   0     1.425464466595   120.50017092     0.00000000
 C      3   2   1     1.402572995186   120.37870927   359.52507513
 C      4   3   2     1.445307424461   117.94693509    16.12748089
 C      5   4   3     1.413729581635   119.92208573   340.69322951
 C      1   2   3     1.394930511913   118.45671062   171.73235787
 C      7   1   2     1.383311589432   121.27638397     3.21431978
 C      8   7   1     1.380002682622   120.46293425     0.40332729
 C      9   8   7     1.394270977959   120.27706623   357.43613185
 C     10   9   8     1.429407016748   121.13744392   181.90966474
 C     11  10   9     1.348417794490   121.18838493   175.30002270
 C      3   2   1     1.427378540689   119.45610970   181.65337547
 C     13   3   2     1.380711136842   119.42168335   177.01197804
 C     14  13   3     1.401254024792   121.00831219   351.32411572
 C     15  14  13     1.424504988643   119.62968264     5.65956968
 C      5   4   3     1.403236412892   121.37094978   155.02882730
 C     17   5   4     1.374480674545   121.43682151   178.86493340
 C     18  17   5     1.390589195289   119.78735242     0.86148013
 C     19  18  17     1.374896814762   119.71368986     4.09178727
 C     15  14  13     1.413289247893   120.98210891   188.19146409
 C     21  15  14     1.364448305594   120.98069298   173.11200101
 C     22  21  15     1.403159659843   119.64719559   357.68378575
 C     23  22  21     1.367821505243   120.59208200     4.52144795
 H      7   1   2     1.078461834640   120.30929317   183.30972400
 H      8   7   1     1.080439784119   119.57300608   179.73947806
 H      9   8   7     1.080558448346   120.42235208   178.69048652
 H     11  10   9     1.080882141745   117.85572194   356.04012085
 H     12  11  10     1.080833831160   121.03357276   180.74011107
 H     14  13   3     1.081138168759   119.75227568   175.52888146
 H     17   5   4     1.078912358554   119.25471420   355.48511304
 H     18  17   5     1.080094795624   120.08113292   179.86180156
 H     19  18  17     1.080107411215   120.12768016   181.12300535
 H     20  19  18     1.078388155645   118.54083160   174.93983480
 H     21  15  14     1.080811096328   118.29403744   355.03981062
 H     22  21  15     1.080124160395   120.63956877   180.38151587
 H     23  22  21     1.080282263687   119.42032806   185.40924541
 H     24  23  22     1.079232302031   119.36915802   183.76113770

---------------------------
INTERNAL COORDINATES (A.U.)
---------------------------
 C      0   0   0     0.000000000000     0.00000000     0.00000000
 C      1   0   0     2.673326846093     0.00000000     0.00000000
 C      2   1   0     2.693737455501   120.50017092     0.00000000
 C      3   2   1     2.650478843735   120.37870927   359.52507513
 C      4   3   2     2.731235211554   117.94693509    16.12748089
 C      5   4   3     2.671561736713   119.92208573   340.69322951
 C      1   2   3     2.636036643367   118.45671062   171.73235787
 C      7   1   2     2.614080061907   121.27638397     3.21431978
 C      8   7   1     2.607827134233   120.46293425     0.40332729
 C      9   8   7     2.634790304818   120.27706623   357.43613185
 C     10   9   8     2.701187795560   121.13744392   181.90966474
 C     11  10   9     2.548140345692   121.18838493   175.30002270
 C      3   2   1     2.697354531338   119.45610970   181.65337547
 C     13   3   2     2.609165918687   119.42168335   177.01197804
 C     14  13   3     2.647986350911   121.00831219   351.32411572
 C     15  14  13     2.691924304939   119.62968264     5.65956968
 C      5   4   3     2.651732521512   121.37094978   155.02882730
 C     17   5   4     2.597392051257   121.43682151   178.86493340
 C     18  17   5     2.627832743887   119.78735242     0.86148013
 C     19  18  17     2.598178442302   119.71368986     4.09178727
 C     15  14  13     2.670729626533   120.98210891   188.19146409
 C     21  15  14     2.578433621465   120.98069298   173.11200101
 C     22  21  15     2.651587479269   119.64719559   357.68378575
 C     23  22  21     2.584808044997   120.59208200     4.52144795
 H      7   1   2     2.037997513355   120.30929317   183.30972400
 H      8   7   1     2.041735296178   119.57300608   179.73947806
 H      9   8   7     2.041959539068   120.42235208   178.69048652
 H     11  10   9     2.042571230945   117.85572194   356.04012085
 H     12  11  10     2.042479937169   121.03357276   180.74011107
 H     14  13   3     2.043055051883   119.75227568   175.52888146
 H     17   5   4     2.038848880171   119.25471420   355.48511304
 H     18  17   5     2.041083362402   120.08113292   179.86180156
 H     19  18  17     2.041107202416   120.12768016   181.12300535
 H     20  19  18     2.037858280234   118.54083160   174.93983480
 H     21  15  14     2.042436974564   118.29403744   355.03981062
 H     22  21  15     2.041138853779   120.63956877   180.38151587
 H     23  22  21     2.041437625701   119.42032806   185.40924541
 H     24  23  22     2.039453485719   119.36915802   183.76113770

---------------------
BASIS SET INFORMATION
---------------------
There are 2 groups of distinct atoms

 Group   1 Type C   : 7s4p1d contracted to 3s2p1d pattern {511/31/1}
 Group   2 Type H   : 4s1p contracted to 2s1p pattern {31/1}

Atom   0C    basis set group =>   1
Atom   1C    basis set group =>   1
Atom   2C    basis set group =>   1
Atom   3C    basis set group =>   1
Atom   4C    basis set group =>   1
Atom   5C    basis set group =>   1
Atom   6C    basis set group =>   1
Atom   7C    basis set group =>   1
Atom   8C    basis set group =>   1
Atom   9C    basis set group =>   1
Atom  10C    basis set group =>   1
Atom  11C    basis set group =>   1
Atom  12C    basis set group =>   1
Atom  13C    basis set group =>   1
Atom  14C    basis set group =>   1
Atom  15C    basis set group =>   1
Atom  16C    basis set group =>   1
Atom  17C    basis set group =>   1
Atom  18C    basis set group =>   1
Atom  19C    basis set group =>   1
Atom  20C    basis set group =>   1
Atom  21C    basis set group =>   1
Atom  22C    basis set group =>   1
Atom  23C    basis set group =>   1
Atom  24H    basis set group =>   2
Atom  25H    basis set group =>   2
Atom  26H    basis set group =>   2
Atom  27H    basis set group =>   2
Atom  28H    basis set group =>   2
Atom  29H    basis set group =>   2
Atom  30H    basis set group =>   2
Atom  31H    basis set group =>   2
Atom  32H    basis set group =>   2
Atom  33H    basis set group =>   2
Atom  34H    basis set group =>   2
Atom  35H    basis set group =>   2
Atom  36H    basis set group =>   2
Atom  37H    basis set group =>   2


           ************************************************************
           *        Program running with 10 parallel MPI-processes    *
           *              working on a common directory               *
           ************************************************************
------------------------------------------------------------------------------
                             ORCA STARTUP CALCULATIONS
------------------------------------------------------------------------------
------------------------------------------------------------------------------
                   ___                                                        
                  /   \      - P O W E R E D   B Y -                         
                 /     \                                                     
                 |  |  |   _    _      __       _____    __    __             
                 |  |  |  | |  | |    /  \     |  _  \  |  |  /  |          
                  \  \/   | |  | |   /    \    | | | |  |  | /  /          
                 / \  \   | |__| |  /  /\  \   | |_| |  |  |/  /          
                |  |  |   |  __  | /  /__\  \  |    /   |      \           
                |  |  |   | |  | | |   __   |  |    \   |  |\   \          
                \     /   | |  | | |  |  |  |  | |\  \  |  | \   \       
                 \___/    |_|  |_| |__|  |__|  |_| \__\ |__|  \__/        
                                                                              
                      - O R C A' S   B I G   F R I E N D -                    
                                      &                                       
                       - I N T E G R A L  F E E D E R -                       
                                                                              
 v1 FN, 2020, v2 2021, v3 2022-2024                                           
------------------------------------------------------------------------------


----------------------
SHARK INTEGRAL PACKAGE
----------------------

Number of atoms                             ...     38
Number of basis functions                   ...    406
Number of shells                            ...    186
Maximum angular momentum                    ...      2
Integral batch strategy                     ... SHARK/LIBINT Hybrid
RI-J (if used) integral strategy            ... SPLIT-RIJ (Revised 2003 algorithm where possible)
Printlevel                                  ...      1
Contraction scheme used                     ... SEGMENTED contraction
Prescreening option                         ... SCHWARTZ
   Thresh                                   ... 1.000e-10
   Tcut                                     ... 1.000e-11
   Tpresel                                  ... 1.000e-11 
Coulomb Range Separation                    ... NOT USED
Exchange Range Separation                   ... NOT USED
Multipole approximations                    ... NOT USED
Finite Nucleus Model                        ... NOT USED
CABS basis                                  ... NOT available
Auxiliary Coulomb fitting basis             ... NOT available
Auxiliary J/K fitting basis                 ... NOT available
Auxiliary Correlation fitting basis         ... NOT available
Auxiliary 'external' fitting basis          ... NOT available

Checking pre-screening integrals            ... done (  0.0 sec) Dimension = 186
Check shell pair data                       ... done (  0.0 sec)
Shell pair information
Shell pair cut-off parameter TPreSel        ...   1.0e-11
Total number of shell pairs                 ...     17391
Shell pairs after pre-screening             ...     13169
Total number of primitive shell pairs       ...     64615
Primitive shell pairs kept                  ...     31190
          la=0 lb=0:   3842 shell pairs
          la=1 lb=0:   4802 shell pairs
          la=1 lb=1:   1570 shell pairs
          la=2 lb=0:   1676 shell pairs
          la=2 lb=1:   1100 shell pairs
          la=2 lb=2:    179 shell pairs

Calculating one electron integrals          ... done (  0.0 sec)
Calculating Nuclear repulsion               ... done (  0.0 sec) ENN=   1835.364193037067 Eh

Diagonalization of the overlap matrix:
Smallest eigenvalue                        ... 1.348e-04
Time for diagonalization                   ...    0.012 sec
Threshold for overlap eigenvalues          ... 1.000e-07
Number of eigenvalues below threshold      ... 0
Time for construction of square roots      ...    0.010 sec
Total time needed                          ...    0.025 sec

-------------------
DFT GRID GENERATION
-------------------

General Integration Accuracy     IntAcc      ... 4.959
Radial Grid Type                 RadialGrid  ... OptM3 with GC (2021)
Angular Grid (max. ang.)         AngularGrid ... 6 (Lebedev-590)
Angular grid pruning method      GridPruning ... 4 (adaptive)
Weight generation scheme         WeightScheme... mBecke (2022)
Basis function cutoff            BFCut       ... 1.0000e-10
Integration weight cutoff        WCut        ... 1.0000e-14
Partially contracted basis set               ... off
Rotationally invariant grid construction     ... off
Angular grids for H and He will be reduced by one unit

Total number of grid points                  ...   457284
Total number of batches                      ...     7164
Average number of points per batch           ...       63
Average number of grid points per atom       ...    12034
Initializing property integral containers    ... done (  0.0 sec)

SHARK setup successfully completed in   3.5 seconds

Maximum memory used throughout the entire STARTUP-calculation: 91.1 MB


           ************************************************************
           *        Program running with 10 parallel MPI-processes    *
           *              working on a common directory               *
           ************************************************************
-------------------------------------------------------------------------------
                                 ORCA GUESS
                   Start orbitals & Density for SCF / CASSCF
-------------------------------------------------------------------------------

------------
SCF SETTINGS
------------
Hamiltonian:
 Density Functional     Method          .... DFT(GTOs)
 Exchange Functional    Exchange        .... PBE
   PBE kappa parameter   XKappa         ....  0.804000
   PBE mue parameter    XMuePBE         ....  0.219520
 Correlation Functional Correlation     .... P86
 LDA part of GGA corr.  LDAOpt          .... VWN-5
 Gradients option       PostSCFGGA      .... off
 Hybrid DFT is turned on
   Fraction HF Exchange ScalHFX         ....  0.690000
   Scaling of DF-GGA-X  ScalDFX         ....  0.310000
   Scaling of DF-GGA-C  ScalDFC         ....  0.403800
   Scaling of DF-LDA-C  ScalLDAC        ....  0.403800
   Perturbative correction              ....  1.000000


General Settings:
 Integral files         IntName         .... compas3x_hc_c24h14_0pent_2_dz_nori
 Hartree-Fock type      HFTyp           .... RHF
 Total Charge           Charge          ....    0
 Multiplicity           Mult            ....    1
 Number of Electrons    NEL             ....  158
 Basis Dimension        Dim             ....  406
 Nuclear Repulsion      ENuc            ....   1835.3641930371 Eh

Convergence Acceleration:
 AO-DIIS                CNVDIIS         .... on
   Start iteration      DIISMaxIt       ....    12
   Startup error        DIISStart       ....  0.200000
   # of expansion vecs  DIISMaxEq       ....     5
   Bias factor          DIISBfac        ....   1.050
   Max. coefficient     DIISMaxC        ....  10.000
 MO-DIIS                CNVKDIIS        .... off
 Trust-Rad. Augm. Hess. CNVTRAH         .... auto
   Auto Start mean grad. ratio tolernc. ....  1.125000
   Auto Start start iteration           ....    50
   Auto Start num. interpolation iter.  ....    10
   Max. Number of Micro iterations      ....    24
   Max. Number of Macro iterations      .... Maxiter - #DIIS iter
   Number of Davidson start vectors     ....     2
   Converg. threshold    (grad. norm)   ....   5.000e-05
   Grad. Scal. Fac. for Micro threshold ....   0.100
   Minimum threshold for Micro iter.    ....   1.000e-02
   NR start threshold (gradient norm)   ....   1.000e-04
   Initial trust radius                 ....   0.400
   Minimum AH scaling param. (alpha)    ....   1.000
   Maximum AH scaling param. (alpha)    .... 1000.000
   Quad. conv. algorithm                .... NR
   White noise on init. David. guess    .... on
   Maximum white noise                  ....   0.010
   Pseudo random numbers                .... off
   Inactive MOs                         .... canonical
   Orbital update algorithm             .... Taylor
   Preconditioner                       .... Diag
   Full preconditioner red. dimension   ....   250
 SOSCF                  CNVSOSCF        .... on
   Start iteration      SOSCFMaxIt      ....   150
   Startup grad/error   SOSCFStart      ....  0.003300
   Hessian update       SOSCFHessUp     .... L-BFGS
 Level Shifting         CNVShift        .... on
   Level shift para.    LevelShift      ....    0.2500
   Turn off err/grad.   ShiftErr        ....    0.0010
 Zerner damping         CNVZerner       .... off
 Static damping         CNVDamp         .... on
   Fraction old density DampFac         ....    0.7000
   Max. Damping (<1)    DampMax         ....    0.9800
   Min. Damping (>=0)   DampMin         ....    0.0000
   Turn off err/grad.   DampErr         ....    0.1000

SCF Procedure:
 Maximum # iterations   MaxIter         ....   125
 SCF integral mode      SCFMode         .... Direct
   Integral package                     .... SHARK and LIBINT hybrid scheme
 Reset frequency        DirectResetFreq ....    20
 Integral Threshold     Thresh          ....  1.000e-10 Eh
 Primitive CutOff       TCut            ....  1.000e-11 Eh

Convergence Tolerance:
 Convergence Check Mode ConvCheckMode   .... Total+1el-Energy
 Convergence forced     ConvForced      .... 0
 Energy Change          TolE            ....  1.000e-06 Eh
 1-El. energy change                    ....  1.000e-03 Eh
 Orbital Gradient       TolG            ....  5.000e-05
 Orbital Rotation angle TolX            ....  5.000e-05
 DIIS Error             TolErr          ....  1.000e-06

------------------------------
INITIAL GUESS: MODEL POTENTIAL
------------------------------
Loading Hartree-Fock densities                     ... done
Calculating cut-offs                               ... done
Initializing the effective Hamiltonian             ... done
Setting up the integral package (SHARK)            ... done
Starting the Coulomb interaction                   ... done (   0.1 sec)
Making the grid                                    ... done (   0.2 sec)
Mapping shells                                     ... done
Starting the XC term evaluation                    ... done (   0.0 sec)
  promolecular density results
     # of electrons  =    158.001838239
     EX              =   -127.050588138
     EC              =      0.198136498
     EX+EC           =   -126.852451640
Transforming the Hamiltonian                       ... done (   0.0 sec)
Diagonalizing the Hamiltonian                      ... done (   0.0 sec)
Back transforming the eigenvectors                 ... done (   0.0 sec)
Now organizing SCF variables                       ... done
                      ------------------
                      INITIAL GUESS DONE (   0.3 sec)
                      ------------------
             **** ENERGY FILE WAS UPDATED (compas3x_hc_c24h14_0pent_2_dz_nori.en.tmp) ****
Finished Guess after   1.9 sec
Maximum memory used throughout the entire GUESS-calculation: 29.5 MB


           ************************************************************
           *        Program running with 10 parallel MPI-processes    *
           *              working on a common directory               *
           ************************************************************

-------------------------------------------------------------------------------------------
                                      ORCA LEAN-SCF
                              memory conserving SCF solver
-------------------------------------------------------------------------------------------

----------------------------------------D-I-I-S--------------------------------------------
Iteration    Energy (Eh)           Delta-E    RMSDP     MaxDP     DIISErr   Damp  Time(sec)
-------------------------------------------------------------------------------------------
               ***  Starting incremental Fock matrix formation  ***
    1    -918.1376269810361919     0.00e+00  3.76e-03  1.06e-01  1.17e-01  0.700   3.2
    2    -918.2836048965691589    -1.46e-01  2.85e-03  7.95e-02  7.48e-02  0.700   2.7
                               ***Turning on AO-DIIS***
    3    -918.3713734489174385    -8.78e-02  1.91e-03  5.49e-02  4.51e-02  0.700   2.8
    4    -918.4265482898194932    -5.52e-02  4.49e-03  1.30e-01  3.08e-02  0.000   2.6
                              *** Initializing SOSCF ***
---------------------------------------S-O-S-C-F--------------------------------------
Iteration    Energy (Eh)           Delta-E    RMSDP     MaxDP     MaxGrad    Time(sec)
--------------------------------------------------------------------------------------
    5    -918.5466964966990417    -1.20e-01  1.93e-04  4.34e-03  2.44e-03     2.8
               *** Restarting incremental Fock matrix formation ***
    6    -918.5469534566959737    -2.57e-04  1.05e-04  2.61e-03  7.56e-04     3.0
    7    -918.5470278247730676    -7.44e-05  8.03e-05  1.60e-03  6.77e-04     2.2
    8    -918.5470504643344611    -2.26e-05  3.17e-05  6.75e-04  2.70e-04     2.2
    9    -918.5470555678566598    -5.10e-06  1.08e-05  3.21e-04  4.71e-05     2.1
   10    -918.5470558744100344    -3.07e-07  3.96e-06  9.17e-05  3.25e-05     1.9
                 **** Energy Check signals convergence ****

               *****************************************************
               *                     SUCCESS                       *
               *           SCF CONVERGED AFTER  10 CYCLES          *
               *****************************************************

             **** ENERGY FILE WAS UPDATED (compas3x_hc_c24h14_0pent_2_dz_nori.en.tmp) ****

----------------
TOTAL SCF ENERGY
----------------

Total Energy       :       -918.54705587441003 Eh          -24994.93611 eV

Components:
Nuclear Repulsion  :       1835.36419303706725 Eh           49942.79874 eV
Electronic Energy  :      -2753.91124891147729 Eh          -74937.73484 eV
One Electron Energy:      -4889.26775183251448 Eh         -133043.73934 eV
Two Electron Energy:       2135.35650292103719 Eh           58106.00450 eV

Virial components:
Potential Energy   :      -1831.01514429491181 Eh          -49824.45510 eV
Kinetic Energy     :        912.46808842050189 Eh           24829.51899 eV
Virial Ratio       :          2.00666211512605

DFT components:
N(Alpha)           :       79.000005867269 electrons
N(Beta)            :       79.000005867269 electrons
N(Total)           :      158.000011734538 electrons
E(X)               :      -39.974448995532 Eh       
E(C)               :       -2.359209256695 Eh       
E(XC)              :      -42.333658252227 Eh       

---------------
SCF CONVERGENCE
---------------

  Last Energy change         ...    3.0655e-07  Tolerance :   1.0000e-06
  Last MAX-Density change    ...    9.1709e-05  Tolerance :   1.0000e-05
  Last RMS-Density change    ...    3.9587e-06  Tolerance :   1.0000e-06
  Last DIIS Error            ...    2.4405e-03  Tolerance :   1.0000e-06
  Last Orbital Gradient      ...    3.2526e-05  Tolerance :   5.0000e-05
  Last Orbital Rotation      ...    9.7812e-05  Tolerance :   5.0000e-05


----------------
ORBITAL ENERGIES
----------------

  NO   OCC          E(Eh)            E(eV) 
   0   2.0000     -10.840907      -294.9961 
   1   2.0000     -10.838895      -294.9413 
   2   2.0000     -10.838522      -294.9312 
   3   2.0000     -10.837904      -294.9144 
   4   2.0000     -10.837510      -294.9036 
   5   2.0000     -10.837003      -294.8898 
   6   2.0000     -10.835910      -294.8601 
   7   2.0000     -10.835606      -294.8518 
   8   2.0000     -10.834898      -294.8326 
   9   2.0000     -10.834564      -294.8235 
  10   2.0000     -10.830478      -294.7123 
  11   2.0000     -10.829271      -294.6795 
  12   2.0000     -10.829061      -294.6737 
  13   2.0000     -10.828881      -294.6688 
  14   2.0000     -10.828131      -294.6484 
  15   2.0000     -10.828035      -294.6458 
  16   2.0000     -10.827931      -294.6430 
  17   2.0000     -10.827501      -294.6313 
  18   2.0000     -10.827108      -294.6206 
  19   2.0000     -10.826880      -294.6144 
  20   2.0000     -10.826570      -294.6060 
  21   2.0000     -10.826452      -294.6027 
  22   2.0000     -10.825605      -294.5797 
  23   2.0000     -10.825514      -294.5772 
  24   2.0000      -1.091543       -29.7024 
  25   2.0000      -1.055397       -28.7188 
  26   2.0000      -1.045813       -28.4580 
  27   2.0000      -1.014558       -27.6075 
  28   2.0000      -0.986383       -26.8409 
  29   2.0000      -0.962201       -26.1828 
  30   2.0000      -0.951778       -25.8992 
  31   2.0000      -0.914909       -24.8959 
  32   2.0000      -0.908641       -24.7254 
  33   2.0000      -0.904558       -24.6143 
  34   2.0000      -0.879769       -23.9397 
  35   2.0000      -0.860072       -23.4037 
  36   2.0000      -0.790947       -21.5228 
  37   2.0000      -0.777744       -21.1635 
  38   2.0000      -0.771984       -21.0068 
  39   2.0000      -0.768605       -20.9148 
  40   2.0000      -0.733764       -19.9667 
  41   2.0000      -0.719420       -19.5764 
  42   2.0000      -0.695738       -18.9320 
  43   2.0000      -0.674669       -18.3587 
  44   2.0000      -0.656822       -17.8730 
  45   2.0000      -0.647651       -17.6235 
  46   2.0000      -0.625762       -17.0278 
  47   2.0000      -0.604468       -16.4484 
  48   2.0000      -0.603319       -16.4171 
  49   2.0000      -0.583764       -15.8850 
  50   2.0000      -0.575242       -15.6531 
  51   2.0000      -0.572034       -15.5658 
  52   2.0000      -0.554102       -15.0779 
  53   2.0000      -0.547254       -14.8915 
  54   2.0000      -0.536637       -14.6026 
  55   2.0000      -0.535394       -14.5688 
  56   2.0000      -0.528259       -14.3747 
  57   2.0000      -0.524914       -14.2836 
  58   2.0000      -0.516728       -14.0609 
  59   2.0000      -0.512345       -13.9416 
  60   2.0000      -0.495731       -13.4895 
  61   2.0000      -0.482407       -13.1270 
  62   2.0000      -0.478579       -13.0228 
  63   2.0000      -0.472773       -12.8648 
  64   2.0000      -0.464802       -12.6479 
  65   2.0000      -0.457808       -12.4576 
  66   2.0000      -0.452121       -12.3028 
  67   2.0000      -0.440555       -11.9881 
  68   2.0000      -0.428985       -11.6733 
  69   2.0000      -0.418352       -11.3839 
  70   2.0000      -0.411775       -11.2050 
  71   2.0000      -0.391600       -10.6560 
  72   2.0000      -0.364943        -9.9306 
  73   2.0000      -0.349755        -9.5173 
  74   2.0000      -0.318504        -8.6669 
  75   2.0000      -0.308639        -8.3985 
  76   2.0000      -0.299939        -8.1618 
  77   2.0000      -0.261567        -7.1176 
  78   2.0000      -0.232303        -6.3213 
  79   0.0000      -0.003850        -0.1048 
  80   0.0000       0.023490         0.6392 
  81   0.0000       0.054810         1.4915 
  82   0.0000       0.064936         1.7670 
  83   0.0000       0.079539         2.1644 
  84   0.0000       0.115888         3.1535 
  85   0.0000       0.133667         3.6373 
  86   0.0000       0.138806         3.7771 
  87   0.0000       0.144682         3.9370 
  88   0.0000       0.147458         4.0125 
  89   0.0000       0.159036         4.3276 
*Only the first 10 virtual orbitals were printed.
-------
TIMINGS
-------

Total SCF time: 0 days 0 hours 0 min 27 sec 

Total time                  ....      27.181 sec
Sum of individual times     ....      27.160 sec  ( 99.9%)

SCF preparation             ....       1.584 sec  (  5.8%)
Fock matrix formation       ....      24.804 sec  ( 91.3%)
  Startup                   ....       0.071 sec  (  0.3% of F)
  Coulomb+Exchange Fock     ....      21.029 sec  ( 84.8% of F)
  XC integration            ....       3.476 sec  ( 14.0% of F)
    XC Preparation          ....       0.000 sec  (  0.0% of XC)
    Basis function eval.    ....       1.180 sec  ( 34.0% of XC)
    Density eval.           ....       0.765 sec  ( 22.0% of XC)
    XC-Functional eval.     ....       0.186 sec  (  5.4% of XC)
    XC-Potential eval.      ....       0.662 sec  ( 19.0% of XC)
Diagonalization             ....       0.000 sec  (  0.0%)
Density matrix formation    ....       0.126 sec  (  0.5%)
Total Energy calculation    ....       0.069 sec  (  0.3%)
Population analysis         ....       0.000 sec  (  0.0%)
Orbital Transformation      ....       0.066 sec  (  0.2%)
Orbital Orthonormalization  ....       0.000 sec  (  0.0%)
DIIS solution               ....       0.314 sec  (  1.2%)
SOSCF solution              ....       0.190 sec  (  0.7%)
Finished LeanSCF after  27.2 sec

Maximum memory used throughout the entire LEANSCF-calculation: 69.8 MB


           ************************************************************
           *        Program running with 10 parallel MPI-processes    *
           *              working on a common directory               *
           ************************************************************

------------------------------------------------------------------------------
                                ORCA  MP2 
------------------------------------------------------------------------------

MP2 will be done in the AO integral direct mode
The Q1-step will be done using symmetric double matrices
Dimension of the basis                    ...  406
Memory devoted for MP2                    ... 45000 MB   
Memory needed for all in one shot         ... 2048 MB
Number of MOs that can be treated together...  174      
Scaling for aa/bb pairs                   ...   5.710e-02
Scaling for ab pairs                      ...   5.979e-01
Overall scaling of the MP2 energy         ...   1.000e+00
Total number of MOs              ...   79
Number of MOs treated per batch  ...    8 
Number of batches necessary      ...    1 
OPERATORS   0/  0 PASS   9
OPERATORS   0/  0 PASS   0
OPERATORS   0/  0 PASS   5
OPERATORS   0/  0 PASS   4
OPERATORS   0/  0 PASS   8
OPERATORS   0/  0 PASS   1
OPERATORS   0/  0 PASS   7
OPERATORS   0/  0 PASS   6
OPERATORS   0/  0 PASS   2
OPERATORS   0/  0 PASS   3
-----------------------------------------------
 MP2 CORRELATION ENERGY   :     -1.610470364 Eh
-----------------------------------------------


---------------------------------------
MP2 TOTAL ENERGY:     -920.157526239 Eh
---------------------------------------

Maximum memory used throughout the entire MP2-calculation: 2446.6 MB


-------------------------------------------------------------------------------
                          DFT DISPERSION CORRECTION                            
                                                                               
                                DFTD4 V3.4.0                                   
-------------------------------------------------------------------------------
The REV-DSD-PBEP86-2021 functional is recognized
A user input s6-coefficient scaling factor has been recognized
A user input a1-coefficient scaling factor has been recognized
A user input s8-coefficient scaling factor has been recognized
A user input a2-coefficient scaling factor has been recognized
A user input s9-coefficient scaling factor has been recognized
Active option DFTDOPT                   ...         5   

-------------------------   ----------------
Dispersion correction           -0.038757749
-------------------------   ----------------


-------------------------   --------------------
FINAL SINGLE POINT ENERGY      -920.196283987766
-------------------------   --------------------



           ************************************************************
           *        Program running with 10 parallel MPI-processes    *
           *              working on a common directory               *
           ************************************************************

------------------------------------------------------------------------------
                              ORCA PROPERTY CALCULATIONS
------------------------------------------------------------------------------

GBWName                                 ... compas3x_hc_c24h14_0pent_2_dz_nori.gbw
Number of atoms                         ...     38
Number of basis functions               ...    406
Max core memory                         ...   1024 MB

Electric properties:
Dipole moment                           ... YES
Quadrupole moment                       ...  NO
Static polarizability (Dipole/Dipole)   ...  NO
Static polarizability (Dipole/Quad.)    ...  NO
Static polarizability (Quad./Quad.)     ...  NO
Static polarizability (Velocity)        ...  NO

Atomic electric properties:
Dipole moment                           ...  NO
Quadrupole moment                       ...  NO
Static polarizability                   ...  NO

Choice of electric origin               ... Center of mass
Position of electric origin             ...     0.040123    -0.130327    -0.043089

General magnetic properties:
Magnetizability                         ...  NO

EPR properties:
g-Tensor (aka g-matrix)                 ...  NO
Zero-Field splitting spin-orbit         ...  NO
Zero-field splitting spin-spin          ...  NO
Hyperfine couplings                     ...  NO (   0 nuclei)
Quadrupole couplings                    ...  NO (   0 nuclei)
Contact density                         ...  NO (   0 nuclei)

NMR properties:
Chemical shifts                         ...  NO (   0 nuclei)
Spin-rotation constants                 ...  NO (   0 nuclei)
Spin-spin couplings                     ...  NO (   0 nuclei,    0 pairs)

Choice of magnetic origin               ... GIAO
Position of magnetic origin             ...     0.000000     0.000000     0.000000

Properties with geometric perturbations:
SCF Hessian                             ...  NO
IR spectrum                             ...  NO
VCD spectrum                            ...  NO
X-ray spectroscopy properties:
SCF XES/XAS/RIXS spectra                ...  NO


-------------
DIPOLE MOMENT
-------------

Method             : SCF
Type of density    : Electron Density
Multiplicity       :   1
Irrep              :   0
Energy             :  -918.5470558744100344 Eh
Relativity type    : 
Basis              : AO
                                X                 Y                 Z
Electronic contribution:      0.855969455      -2.671344709      -0.873062801
Nuclear contribution   :     -0.826280690       2.685985567       0.885318008
                        -----------------------------------------
Total Dipole Moment    :      0.029688766       0.014640858       0.012255207
                        -----------------------------------------
Magnitude (a.u.)       :      0.035298267
Magnitude (Debye)      :      0.089721064



--------------------
Rotational spectrum 
--------------------
 
Rotational constants in cm-1:             0.012313             0.008323             0.005112 
Rotational constants in MHz :           369.135205           249.511304           153.265449 

Dipole components along the rotational axes: 
x,y,z [a.u.] :    -0.021997     0.022529     0.015955 
x,y,z [Debye]:    -0.055911     0.057265     0.040554 

 

Dipole moment calculation done in   0.0 sec 

Maximum memory used throughout the entire PROP-calculation: 23.3 MB

--------------------------------
SUGGESTED CITATIONS FOR THIS RUN
--------------------------------

Below you find a list of papers that are relevant to this ORCA run
We neither can nor want to force you to cite these papers, but we appreciate if you do
You receive ORCA, which is the product of decades of hard work by many enthusiastic individuals, for free
The only thing we kindly ask in return is that you cite our papers,
We deeply appreciate it, if you show your appreciation for ORCA by not just citing the generic ORCA reference.

Please note that relegating all ORCA citations to the supporting information does *not* help us.
SI sections are not indexed - citations you put there will not count into any citation statistics
But we need these citations in order to attract the funding resources that allow us to do what we are doing

Therefore, if you are a happy ORCA user, please consider citing a few of the papers listed below in the main body of your paper

In addition to the list printed below, the program has created the file compas3x_hc_c24h14_0pent_2_dz_nori.bibtex that contains the list in bibtex format
You can import this file easily into all common literature databanks and citation aid programs


List of essential papers. We consider these as the minimum necessary citations

  1. Neese,F.
     Software update: the ORCA program system, version 5.0
     WIRES Comput. Molec. Sci., 2022 12(1)e1606
     doi.org/10.1002/wcms.1606

List of papers to cite with high priority. The work reported in these papers was absolutely
necessary for this run to complete.
Our perspective: the developers of density functionals and basis sets usually get cited in chemistry papers
Good! But without the algorithms to do something with them, the functionals or basis sets would not do anything.
Hence, in our opinion, the algorithm design and method developments papers are equally worthy of getting cited

  1. Neese,F.
     The SHARK Integral Generation and Digestion System
     J. Comp. Chem., 2022  1-16
     doi.org/10.1002/jcc.26942
  2. Caldeweyher,E.; Bannwarth,C.; Grimme,S.
     Extension of the D3 dispersion coefficient model
     J. Chem. Phys., 2017 147 034112
     doi.org/10.1063/1.4993215
  3. Caldeweyher,E.; Ehlert,S.; Hansen,A.; Neugebauer,H.; Spicher,S.; Bannwarth,C.; Grimme,S.
     A generally applicable atomic-charge dependent London dispersion correction
     J. Chem. Phys., 2019 150 154122
     doi.org/10.1063/1.5090222
  4. Caldeweyher,E.; Mewes,J.; Ehlert,S.; Grimme,S.
     Extension and evaluation of the D4 London-dispersion model for periodic systems
     Phys. Chem. Chem. Phys., 2020 22(16)8499-8512
     doi.org/10.1039/D0CP00502A
  5. Wittmann,L.; Gordiy,I.; Friede,M.; Helmich-Paris,B.; Grimme,S.; Hansen,A.; Bursch,M.
     Extension of the D3 and D4 London Dispersion Corrections to the full Actinides Series
     Phys. Chem. Chem. Phys., 2024 26(32)21379-21394
     doi.org/https://doi.org/10.1039/D4CP01514B 

List of suggested additional citations. These are papers that are important in the 'surrounding' of 
of this run, or papers that preceded the highly important papers. If you like your results we are grateful for a citation.

  1. Neese,F.
     The ORCA program system
     WIRES Comput. Molec. Sci., 2012 2(1)73-78
     doi.org/10.1002/wcms.81
  2. Neese,F.
     Software update: the ORCA program system, version 4.0
     WIRES Comput. Molec. Sci., 2018 8(1)1-6
     doi.org/10.1002/wcms.1327
  3. Neese,F.; Wennmohs,F.; Becker,U.; Riplinger,C.
     The ORCA quantum chemistry program package
     J. Chem. Phys., 2020 152 Art. No. L224108
     doi.org/10.1063/5.0004608

List of optional additional citations

  1. Neese,F.
     Approximate second-order SCF convergence for spin unrestricted wavefunctions
     Chem. Phys. Lett., 2000 325(1-3)93-98
     doi.org/10.1016/s0009-2614(00)00662-x

Timings for individual modules:

Sum of individual times          ...      170.002 sec (=   2.833 min)
Startup calculation              ...        5.601 sec (=   0.093 min)   3.3 %
SCF iterations                   ...       30.239 sec (=   0.504 min)  17.8 %
Property calculations            ...        1.953 sec (=   0.033 min)   1.1 %
MP2 module                       ...      132.209 sec (=   2.203 min)  77.8 %
                             ****ORCA TERMINATED NORMALLY****
TOTAL RUN TIME: 0 days 0 hours 2 minutes 52 seconds 494 msec
