
                                 *****************
                                 * O   R   C   A *
                                 *****************

                                            #,                                       
                                            ###                                      
                                            ####                                     
                                            #####                                    
                                            ######                                   
                                           ########,                                 
                                     ,,################,,,,,                         
                               ,,#################################,,                 
                          ,,##########################################,,             
                       ,#########################################, ''#####,          
                    ,#############################################,,   '####,        
                  ,##################################################,,,,####,       
                ,###########''''           ''''###############################       
              ,#####''   ,,,,##########,,,,          '''####'''          '####       
            ,##' ,,,,###########################,,,                        '##       
           ' ,,###''''                  '''############,,,                           
         ,,##''                                '''############,,,,        ,,,,,,###''
      ,#''                                            '''#######################'''  
     '                                                          ''''####''''         
             ,#######,   #######,   ,#######,      ##                                
            ,#'     '#,  ##    ##  ,#'     '#,    #''#        ,####,   ,####,        
            ##       ##  ##   ,#'  ##            #'  '#       #'       #'  '#        
            ##       ##  #######   ##           ,######,      #####,   #    #        
            '#,     ,#'  ##    ##  '#,     ,#' ,#      #,     #,   #   #,  ,#        
             '#######'   ##     ##  '#######'  #'      '#     '####' # '####'        



                #########################################################
                #                        -***-                          #
                #          Department of theory and spectroscopy        #
                #                                                       #
                #                      Frank Neese                      #
                #                                                       #
                #     Directorship, Architecture, Infrastructure        #
                #                    SHARK, DRIVERS                     #
                #        Core code/Algorithms in most modules           #
                #                                                       #
                #        Max Planck Institute fuer Kohlenforschung      #
                #                Kaiser Wilhelm Platz 1                 #
                #                 D-45470 Muelheim/Ruhr                 #
                #                      Germany                          #
                #                                                       #
                #                  All rights reserved                  #
                #                        -***-                          #
                #########################################################


                         Program Version 6.0.1  -  RELEASE   -


 With contributions from (in alphabetic order):
[Max-Planck-Institut fuer Kohlenforschung]                               
  Daniel Aravena         : Magnetic Suceptibility                        
  Michael Atanasov       : Ab Initio Ligand Field Theory (pilot matlab implementation)
  Alexander A. Auer      : GIAO ZORA, VPT2 properties, NMR spectrum      
  Ute Becker             : All parallelization in ORCA, NUMFREQ, NUMCALC 
  Giovanni Bistoni       : ED, misc. LED, open-shell LED, HFLD           
  Martin Brehm           : Molecular dynamics                            
  Dmytro Bykov           : pre 5.0 version of the SCF Hessian            
  Marcos Casanova-Páez   : Triplet and SCS-CIS(D). UHF-(DLPNO)-IP/EA/STEOM-CCSD. UHF-CVS-IP/STEOM-CCSD   
  Vijay G. Chilkuri      : MRCI spin determinant printing, contributions to CSF-ICE 
  Pauline Colinet        : FMM embedding                                 
  Dipayan Datta          : RHF DLPNO-CCSD density                        
  Achintya Kumar Dutta   : EOM-CC, STEOM-CC                              
  Nicolas Foglia         : Exact transition moments, OPA infrastructure, MCD improvements    
  Dmitry Ganyushin       : Spin-Orbit,Spin-Spin,Magnetic field MRCI      
  Miquel Garcia-Rates    : C-PCM and meta-GGA Hessian, CCSD/C-PCM, Gaussian charge scheme 
  Tiago L. C. Gouveia    : GS-ROHF, GS-ROCIS                             
  Yang Guo               : DLPNO-NEVPT2, F12-NEVPT2, CIM, IAO-localization        
  Andreas Hansen         : Spin unrestricted coupled pair/coupled cluster methods 
  Ingolf Harden          : AUTO-CI MPn and infrastructure                
  Benjamin Helmich-Paris : MC-RPA, TRAH-(SCF,CASSCF), AVAS, COSX integrals, SCF dyn. polar. 
  Lee Huntington         : MR-EOM, pCC                                   
  Robert Izsak           : Overlap fitted RIJCOSX, COSX-SCS-MP3, EOM     
  Riya Kayal             : Wick's Theorem for AUTO-CI, AUTO-CI UHF-CCSDT 
  Emily Kempfer          : AUTO-CI, RHF CISDT and CCSDT                  
  Christian Kollmar      : KDIIS, OOCD, Brueckner-CCSD(T), CCSD density, CASPT2, CASPT2-K, improved NEVPT2 
  Axel Koslowski         : Symmetry handling                             
  Simone Kossmann        : meta-GGA functionals, TD-DFT gradient, OOMP2, (MP2 Hessian; deprecated post 5.0) 
  Lucas Lang             : DCDCAS                                        
  Marvin Lechner         : AUTO-CI (C++ implementation), FIC-MRCC        
  Spencer Leger          : CASSCF response                               
  Dagmar Lenk            : GEPOL surface, SMD, ORCA-2-JSON               
  Dimitrios Liakos       : Extrapolation schemes; Compound Job, initial MDCI parallelization 
  Dimitrios Manganas     : Further ROCIS development; embedding schemes. LFT, Crystal Embedding 
  Dimitrios Pantazis     : SARC Basis sets                               
  Anastasios Papadopoulos: AUTO-CI, single reference methods and gradients 
  Taras Petrenko         : pre 6.0 DFT Hessian and TD-DFT gradient, (ASA, deprecated), ECA, 1-Electron XAS/XES, NRVS 
  Peter Pinski           : DLPNO-MP2, DLPNO-MP2 Gradient                 
  Christoph Reimann      : Effective Core Potentials                     
  Marius Retegan         : Local ZFS, SOC                                
  Christoph Riplinger    : Optimizer, TS searches, QM/MM, DLPNO-CCSD(T), (RO)-DLPNO pert. Triples 
  Michael Roemelt        : Original ROCIS implementation                 
  Masaaki Saitow         : Open-shell DLPNO-CCSD energy and density      
  Barbara Sandhoefer     : DKH picture change effects                    
  Kantharuban Sivalingam : CASSCF convergence/infrastructure, NEVPT2 and variants, FIC-MRCI 
  Bernardo de Souza      : ESD, SOC TD-DFT                               
  Georgi L. Stoychev     : AutoAux, RI-MP2 NMR, DLPNO-MP2 response, X2C  
  Van Anh Tran           : RI-MP2 g-tensors                              
  Willem Van den Heuvel  : Paramagnetic NMR                              
  Zikuan Wang            : NOTCH, Electric field optimization            
  Frank Wennmohs         : Technical directorship and infrastructure     
  Hang Xu                : AUTO-CI-Response properties                   
                                                                         
[FACCTs GmbH]                                                            
  Markus Bursch, Miquel Garcia-Rates, Christoph Riplinger, Bernardo de Souza, Georgi L. Stoychev 
                                                                 
  APM, Basis sets (HGBS, AHGBS, def-TZVP (Ac-Lr), def2-XVPD (La-Lu)), CI-OPT, improved COSX, DLPNO-Multilevel,           
  DOCKER, DRACO, updates on ESD, GOAT, IRC, LR-CPCM, MBIS, meta-GGA TD-DFT gradient, ML-optimized integration grids, 
  MM, NACMEs, nearIR, NEB, NEB-TS, NL-DFT gradient (VV10), 2- and 3-layer-ONIOM, interface openCOSMO-RS, QMMM,   
  Crystal-QMMM, SF, symmetry and pop. for TD-DFT, r2SCAN hybrids, SOLVATOR                                   
                                                                         
[Other institutions]                                                     
  V. Asgeirsson          : NEB                                           
  Christoph Bannwarth    : sTDA-DFT, sTD-DFT, PBEh-3c, B97-3c, D3        
  Sebastian Ehlert       : rSCAN, r2SCAN, r2SCAN-3c, D4, dhf basis sets  
  Marvin Friede          : D4 for Fr, Ra, Ac-Lr                          
  Lars Goerigk           : TD-DFT with DH, B97 family of functionals     
  Stefan Grimme          : VdW corrections, initial TS optimization, DFT functionals, gCP, sTDA/sTD-DF 
  Waldemar Hujo          : DFT-NL                                        
  H. Jonsson             : NEB                                           
  Holger Kruse           : gCP                                           
  Marcel Mueller         : wB97X-3c, vDZP basis set                      
  Hagen Neugebauer       : wr2SCAN                                       
  Tobias Risthaus        : range-separated hybrid DFT                    
  Lukas Wittmann         : regularized MP2, r2SCAN double-hybrids, wr2SCAN        
                                                                         
We gratefully acknowledge several colleagues who have allowed us to      
interface, adapt or use parts of their codes:                            
  Ed Valeev, F. Pavosevic, A. Kumar             : LibInt (2-el integral package), F12 methods 
  Garnet Chan, S. Sharma, J. Yang, R. Olivares  : DMRG                   
  Ulf Ekstrom                                   : XCFun DFT Library      
  Mihaly Kallay                                 : mrcc  (arbitrary order and MRCC methods)
  Frank Weinhold                                : gennbo (NPA and NBO analysis)           
  Simon Mueller                                 : openCOSMO-RS                            
  Christopher J. Cramer and Donald G. Truhlar   : smd solvation model                     
  S Lehtola, MJT Oliveira, MAL Marques          : LibXC Library                           
  Liviu Ungur et al                             : ANISO software                          


 Your calculation uses the libint2 library for the computation of 2-el integrals
 For citations please refer to: http://libint.valeyev.net

 Your ORCA version has been built with support for libXC version: 6.2.2
 For citations please refer to: https://libxc.gitlab.io

 This ORCA versions uses:
   CBLAS   interface :  Fast vector & matrix operations
   LAPACKE interface :  Fast linear algebra routines
   SCALAPACK package :  Parallel linear algebra routines
   Shared memory     :  Shared parallel matrices
   BLAS/LAPACK       :  OpenBLAS 0.3.27  USE64BITINT DYNAMIC_ARCH NO_AFFINITY SapphireRapids SINGLE_THREADED
        Core in use  :  SapphireRapids
   Copyright (c) 2011-2014, The OpenBLAS Project




***************************************
The coordinates will be read from file: /scratch/kx58/rs2200/dhdft/inputs/compas3x-xyzs/hc_c24h14_0pent_13.xyz
***************************************


Your calculation utilizes the atom-pairwise dispersion correction
based on EEQ partial charges (D4)


================================================================================

----- Orbital basis set information -----
Your calculation utilizes the basis: def2-QZVPP
   F. Weigend and R. Ahlrichs, Phys. Chem. Chem. Phys. 7, 3297 (2005).

================================================================================
                                        WARNINGS
                       Please study these warnings very carefully!
================================================================================


WARNING: No MP2 level density has been requested!
         To calculate MP2 level properties use
         %mp2 Density relaxed end
         or
         %mp2 Density unrelaxed end
         Otherwise for double-hybrid DFT only the energy is correct!

================================================================================
                                       INPUT FILE
================================================================================
NAME = compas3x_hc_c24h14_0pent_13_qz_nori.inp
|  1> ! RKS revDSD-PBEP86-D4/2021 defgrid3  NORI NOPOP NoFrozencore NoUseSym
|  2> 
|  3> %basis
|  4> Basis "def2-QZVPP"
|  5> 
|  6> 
|  7> end
|  8> 
|  9> %method
| 10> ScalHFX 0.69
| 11> ScalDFX 0.31
| 12> ScalDFC 0.4038
| 13> ScalLDAC 0.4038
| 14> 
| 15> D4S6 0.4612
| 16> D4S8 0.0
| 17> D4A1 0.44
| 18> D4A2 3.60
| 19> end
| 20> 
| 21> %mp2
| 22> PS 0.5979
| 23> PT 0.0571
| 24> end
| 25> 
| 26> %pal
| 27> nprocs 104
| 28> end
| 29> 
| 30> *XYZFILE 0 1 /scratch/kx58/rs2200/dhdft/inputs/compas3x-xyzs/hc_c24h14_0pent_13.xyz
| 31> 
| 32>                          ****END OF INPUT****
================================================================================

                       ****************************
                       * Single Point Calculation *
                       ****************************

---------------------------------
CARTESIAN COORDINATES (ANGSTROEM)
---------------------------------
  C      0.384440   -0.468704    0.040979
  C     -0.966204   -0.854559   -0.032935
  C     -2.000274    0.109606   -0.222896
  C     -1.641996    1.520245   -0.258572
  C     -0.277602    1.861684   -0.440350
  C      0.735819    0.866584   -0.404743
  C      1.340032   -1.390299    0.535805
  C      0.984019   -2.771149    0.637885
  C     -0.319044   -3.169032    0.353197
  C     -1.316622   -2.233246    0.094260
  C     -2.668121   -2.620406   -0.062885
  C     -3.632516   -1.684802   -0.296430
  C     -3.302555   -0.325367   -0.359637
  C     -2.577967    2.537732   -0.181713
  C     -2.209419    3.874047   -0.336589
  C     -0.912605    4.208403   -0.621716
  C      0.078729    3.210728   -0.696763
  C      1.410143    3.516543   -1.044915
  C      2.333306    2.514975   -1.181565
  C      2.002321    1.197523   -0.861289
  C      2.613574   -1.007817    1.020796
  C      3.518165   -1.934024    1.452582
  C      3.208695   -3.306534    1.424035
  C      1.964541   -3.709929    1.047320
  H     -0.571080   -4.219986    0.376614
  H     -2.917443   -3.668599    0.016395
  H     -4.663944   -1.981167   -0.421473
  H     -4.098290    0.383219   -0.527730
  H     -3.616678    2.310709    0.000737
  H     -2.965207    4.642218   -0.258350
  H     -0.631854    5.237053   -0.796029
  H      1.675563    4.545742   -1.238594
  H      3.334534    2.738555   -1.520724
  H      2.743340    0.425580   -1.000239
  H      2.847315    0.042378    1.106342
  H      4.476781   -1.616284    1.836113
  H      3.949038   -4.025706    1.742480
  H      1.687066   -4.753914    1.081598

----------------------------
CARTESIAN COORDINATES (A.U.)
----------------------------
  NO LB      ZA    FRAG     MASS         X           Y           Z
   0 C     6.0000    0    12.011    0.726486   -0.885722    0.077438
   1 C     6.0000    0    12.011   -1.825860   -1.614882   -0.062238
   2 C     6.0000    0    12.011   -3.779969    0.207125   -0.421213
   3 C     6.0000    0    12.011   -3.102924    2.872847   -0.488630
   4 C     6.0000    0    12.011   -0.524591    3.518074   -0.832141
   5 C     6.0000    0    12.011    1.390497    1.637607   -0.764853
   6 C     6.0000    0    12.011    2.532293   -2.627285    1.012524
   7 C     6.0000    0    12.011    1.859526   -5.236713    1.205428
   8 C     6.0000    0    12.011   -0.602906   -5.988603    0.667446
   9 C     6.0000    0    12.011   -2.488056   -4.220223    0.178126
  10 C     6.0000    0    12.011   -5.042019   -4.951850   -0.118836
  11 C     6.0000    0    12.011   -6.864460   -3.183814   -0.560172
  12 C     6.0000    0    12.011   -6.240924   -0.614854   -0.679615
  13 C     6.0000    0    12.011   -4.871652    4.795618   -0.343388
  14 C     6.0000    0    12.011   -4.175196    7.320889   -0.636060
  15 C     6.0000    0    12.011   -1.724573    7.952729   -1.174873
  16 C     6.0000    0    12.011    0.148776    6.067396   -1.316691
  17 C     6.0000    0    12.011    2.664783    6.645302   -1.974604
  18 C     6.0000    0    12.011    4.409309    4.752613   -2.232834
  19 C     6.0000    0    12.011    3.783839    2.262990   -1.627601
  20 C     6.0000    0    12.011    4.938939   -1.904498    1.929025
  21 C     6.0000    0    12.011    6.648368   -3.654776    2.744983
  22 C     6.0000    0    12.011    6.063556   -6.248443    2.691037
  23 C     6.0000    0    12.011    3.712444   -7.010749    1.979148
  24 H     1.0000    0     1.008   -1.079185   -7.974617    0.711698
  25 H     1.0000    0     1.008   -5.513168   -6.932648    0.030981
  26 H     1.0000    0     1.008   -8.813577   -3.743864   -0.796468
  27 H     1.0000    0     1.008   -7.744645    0.724180   -0.997264
  28 H     1.0000    0     1.008   -6.834531    4.366607    0.001392
  29 H     1.0000    0     1.008   -5.603429    8.772520   -0.488211
  30 H     1.0000    0     1.008   -1.194030    9.896595   -1.504277
  31 H     1.0000    0     1.008    3.166355    8.590207   -2.340604
  32 H     1.0000    0     1.008    6.301356    5.175119   -2.873753
  33 H     1.0000    0     1.008    5.184161    0.804229   -1.890177
  34 H     1.0000    0     1.008    5.380646    0.080082    2.090683
  35 H     1.0000    0     1.008    8.459891   -3.054334    3.469751
  36 H     1.0000    0     1.008    7.462600   -7.607481    3.292810
  37 H     1.0000    0     1.008    3.188092   -8.983596    2.043923

--------------------------------
INTERNAL COORDINATES (ANGSTROEM)
--------------------------------
 C      0   0   0     0.000000000000     0.00000000     0.00000000
 C      1   0   0     1.406621720109     0.00000000     0.00000000
 C      2   1   0     1.426534026951   121.17339191     0.00000000
 C      3   2   1     1.455863681442   118.66966935   356.29737324
 C      4   3   2     1.418166654649   118.24120496    15.56284251
 C      5   4   3     1.420744316323   120.95828779   351.48654794
 C      1   2   3     1.416808609032   119.17938863   165.33513820
 C      7   1   2     1.429654588714   119.02876122    15.14869778
 C      8   7   1     1.391880576665   119.64515754   354.91738214
 C      9   8   7     1.392086991698   121.11539369   353.79562596
 C     10   9   8     1.414615547043   121.42078442   186.44012868
 C     11  10   9     1.363801799308   120.45447538   179.02323840
 C      3   2   1     1.379795474314   118.96596169   176.60533546
 C      4   3   2     1.384639445553   122.97692074   192.66486978
 C     14   4   3     1.394831166065   121.28131530   185.68768405
 C     15  14   4     1.369240049561   120.48524324     2.56016776
 C     16  15  14     1.408449353428   120.31412573   356.84782957
 C     17  16  15     1.409750116849   121.61668980   177.21784011
 C     18  17  16     1.368956419352   120.18699301   183.63068766
 C      6   5   4     1.386355650286   118.43671639   166.62936214
 C      7   1   2     1.415422186386   123.41899548   199.35301766
 C     21   7   1     1.364765483418   121.42588994   181.92122335
 C     22  21   7     1.407255623647   120.64532811     0.17285493
 C     23  22  21     1.361088777595   119.71528815   355.56503763
 H      9   8   7     1.081005957028   119.45593115   176.54233250
 H     11  10   9     1.080349477069   118.54635755   359.64237342
 H     12  11  10     1.080422146439   120.44484856   179.68480288
 H     13   3   2     1.078676765549   120.30558503   181.46162470
 H     14   4   3     1.078771193403   120.37181505     5.67909977
 H     15  14   4     1.080473394975   119.22675745   180.73864775
 H     16  15  14     1.080428598872   120.80989181   176.63451961
 H     18  17  16     1.080375344533   118.87813203     1.24215958
 H     19  18  17     1.080497683620   120.31962909   175.35979346
 H     20   6   5     1.079032922230   119.93416010   190.16281797
 H     21   7   1     1.079287256396   119.00991568     5.74161639
 H     22  21   7     1.080277624366   120.05846408   181.17090228
 H     23  22  21     1.080149100343   119.51558892   178.18442726
 H     24  23  22     1.080774380661   120.80985136   184.08107577

---------------------------
INTERNAL COORDINATES (A.U.)
---------------------------
 C      0   0   0     0.000000000000     0.00000000     0.00000000
 C      1   0   0     2.658129825032     0.00000000     0.00000000
 C      2   1   0     2.695758631658   121.17339191     0.00000000
 C      3   2   1     2.751183646247   118.66966935   356.29737324
 C      4   3   2     2.679946589545   118.24120496    15.56284251
 C      5   4   3     2.684817664176   120.95828779   351.48654794
 C      1   2   3     2.677380255252   119.17938863   165.33513820
 C      7   1   2     2.701655638774   119.02876122    15.14869778
 C      8   7   1     2.630273101020   119.64515754   354.91738214
 C      9   8   7     2.630663168903   121.11539369   353.79562596
 C     10   9   8     2.673235968698   121.42078442   186.44012868
 C     11  10   9     2.577211901640   120.45447538   179.02323840
 C      3   2   1     2.607435567277   118.96596169   176.60533546
 C      4   3   2     2.616589346320   122.97692074   192.66486978
 C     14   4   3     2.635848906920   121.28131530   185.68768405
 C     15  14   4     2.587488705268   120.48524324     2.56016776
 C     16  15  14     2.661583551477   120.31412573   356.84782957
 C     17  16  15     2.664041638108   121.61668980   177.21784011
 C     18  17  16     2.586952721849   120.18699301   183.63068766
 C      6   5   4     2.619832503254   118.43671639   166.62936214
 C      7   1   2     2.674760296146   123.41899548   199.35301766
 C     21   7   1     2.579033000689   121.42588994   181.92122335
 C     22  21   7     2.659327729113   120.64532811     0.17285493
 C     23  22  21     2.572085033609   119.71528815   355.56503763
 H      9   8   7     2.042805207921   119.45593115   176.54233250
 H     11  10   9     2.041564640585   118.54635755   359.64237342
 H     12  11  10     2.041701965794   120.44484856   179.68480288
 H     13   3   2     2.038403673911   120.30558503   181.46162470
 H     14   4   3     2.038582116694   120.37181505     5.67909977
 H     15  14   4     2.041798811490   119.22675745   180.73864775
 H     16  15  14     2.041714159124   120.80989181   176.63451961
 H     18  17  16     2.041613523008   118.87813203     1.24215958
 H     19  18  17     2.041844710379   120.31962909   175.35979346
 H     20   6   5     2.039076712500   119.93416010   190.16281797
 H     21   7   1     2.039557334420   119.00991568     5.74161639
 H     22  21   7     2.041428858656   120.05846408   181.17090228
 H     23  22  21     2.041185983450   119.51558892   178.18442726
 H     24  23  22     2.042367592007   120.80985136   184.08107577

---------------------
BASIS SET INFORMATION
---------------------
There are 2 groups of distinct atoms

 Group   1 Type C   : 15s8p3d2f1g contracted to 7s4p3d2f1g pattern {8211111/5111/111/11/1}
 Group   2 Type H   : 7s3p2d1f contracted to 4s3p2d1f pattern {4111/111/11/1}

Atom   0C    basis set group =>   1
Atom   1C    basis set group =>   1
Atom   2C    basis set group =>   1
Atom   3C    basis set group =>   1
Atom   4C    basis set group =>   1
Atom   5C    basis set group =>   1
Atom   6C    basis set group =>   1
Atom   7C    basis set group =>   1
Atom   8C    basis set group =>   1
Atom   9C    basis set group =>   1
Atom  10C    basis set group =>   1
Atom  11C    basis set group =>   1
Atom  12C    basis set group =>   1
Atom  13C    basis set group =>   1
Atom  14C    basis set group =>   1
Atom  15C    basis set group =>   1
Atom  16C    basis set group =>   1
Atom  17C    basis set group =>   1
Atom  18C    basis set group =>   1
Atom  19C    basis set group =>   1
Atom  20C    basis set group =>   1
Atom  21C    basis set group =>   1
Atom  22C    basis set group =>   1
Atom  23C    basis set group =>   1
Atom  24H    basis set group =>   2
Atom  25H    basis set group =>   2
Atom  26H    basis set group =>   2
Atom  27H    basis set group =>   2
Atom  28H    basis set group =>   2
Atom  29H    basis set group =>   2
Atom  30H    basis set group =>   2
Atom  31H    basis set group =>   2
Atom  32H    basis set group =>   2
Atom  33H    basis set group =>   2
Atom  34H    basis set group =>   2
Atom  35H    basis set group =>   2
Atom  36H    basis set group =>   2
Atom  37H    basis set group =>   2


           ************************************************************
           *        Program running with 104 parallel MPI-processes   *
           *              working on a common directory               *
           ************************************************************
------------------------------------------------------------------------------
                             ORCA STARTUP CALCULATIONS
------------------------------------------------------------------------------
------------------------------------------------------------------------------
                   ___                                                        
                  /   \      - P O W E R E D   B Y -                         
                 /     \                                                     
                 |  |  |   _    _      __       _____    __    __             
                 |  |  |  | |  | |    /  \     |  _  \  |  |  /  |          
                  \  \/   | |  | |   /    \    | | | |  |  | /  /          
                 / \  \   | |__| |  /  /\  \   | |_| |  |  |/  /          
                |  |  |   |  __  | /  /__\  \  |    /   |      \           
                |  |  |   | |  | | |   __   |  |    \   |  |\   \          
                \     /   | |  | | |  |  |  |  | |\  \  |  | \   \       
                 \___/    |_|  |_| |__|  |__|  |_| \__\ |__|  \__/        
                                                                              
                      - O R C A' S   B I G   F R I E N D -                    
                                      &                                       
                       - I N T E G R A L  F E E D E R -                       
                                                                              
 v1 FN, 2020, v2 2021, v3 2022-2024                                           
------------------------------------------------------------------------------


----------------------
SHARK INTEGRAL PACKAGE
----------------------

Number of atoms                             ...     38
Number of basis functions                   ...   1788
Number of shells                            ...    548
Maximum angular momentum                    ...      4
Integral batch strategy                     ... SHARK/LIBINT Hybrid
RI-J (if used) integral strategy            ... SPLIT-RIJ (Revised 2003 algorithm where possible)
Printlevel                                  ...      1
Contraction scheme used                     ... SEGMENTED contraction
Prescreening option                         ... SCHWARTZ
   Thresh                                   ... 1.000e-10
   Tcut                                     ... 1.000e-11
   Tpresel                                  ... 1.000e-11 
Coulomb Range Separation                    ... NOT USED
Exchange Range Separation                   ... NOT USED
Multipole approximations                    ... NOT USED
Finite Nucleus Model                        ... NOT USED
CABS basis                                  ... NOT available
Auxiliary Coulomb fitting basis             ... NOT available
Auxiliary J/K fitting basis                 ... NOT available
Auxiliary Correlation fitting basis         ... NOT available
Auxiliary 'external' fitting basis          ... NOT available

Checking pre-screening integrals            ... done (  0.0 sec) Dimension = 548
Check shell pair data                       ... done (  0.0 sec)
Shell pair information
Shell pair cut-off parameter TPreSel        ...   1.0e-11
Total number of shell pairs                 ...    150426
Shell pairs after pre-screening             ...     92718
Total number of primitive shell pairs       ...    386901
Primitive shell pairs kept                  ...    164625
          la=0 lb=0:  14169 shell pairs
          la=1 lb=0:  20746 shell pairs
          la=1 lb=1:   7195 shell pairs
          la=2 lb=0:  12776 shell pairs
          la=2 lb=1:   9396 shell pairs
          la=2 lb=2:   3046 shell pairs
          la=3 lb=0:   7611 shell pairs
          la=3 lb=1:   5640 shell pairs
          la=3 lb=2:   3458 shell pairs
          la=3 lb=3:   1058 shell pairs
          la=4 lb=0:   3005 shell pairs
          la=4 lb=1:   2229 shell pairs
          la=4 lb=2:   1394 shell pairs
          la=4 lb=3:    816 shell pairs
          la=4 lb=4:    179 shell pairs

Calculating one electron integrals          ... done (  1.1 sec)
Calculating Nuclear repulsion               ... done (  0.0 sec) ENN=   1833.724279272477 Eh

Diagonalization of the overlap matrix:
Smallest eigenvalue                        ... 4.879e-07
Time for diagonalization                   ...    0.637 sec
Threshold for overlap eigenvalues          ... 1.000e-07
Number of eigenvalues below threshold      ... 0

IMPORTANT:
Smallest eigenvalue of S below the DiffSThresh (1.000e-06) while
Thresh>1e-12 and/or TCut>1e-13! In order to avoid SCF convergence issues,
Thresh will be set to at least 1e-12 and TCut to at least 1e-13.
This can be turned off by adding %SCF DiffSThresh -1 END to the input.

Time for construction of square roots      ...    0.358 sec
Total time needed                          ...    1.044 sec

-------------------
DFT GRID GENERATION
-------------------

General Integration Accuracy     IntAcc      ... 4.959
Radial Grid Type                 RadialGrid  ... OptM3 with GC (2021)
Angular Grid (max. ang.)         AngularGrid ... 6 (Lebedev-590)
Angular grid pruning method      GridPruning ... 4 (adaptive)
Weight generation scheme         WeightScheme... mBecke (2022)
Basis function cutoff            BFCut       ... 1.0000e-10
Integration weight cutoff        WCut        ... 1.0000e-14
Partially contracted basis set               ... off
Rotationally invariant grid construction     ... off
Angular grids for H and He will be reduced by one unit
Diffuse basis detected: some atoms will have their outermost
                        angular grid increased by 1.

Total number of grid points                  ...   467624
Total number of batches                      ...     7324
Average number of points per batch           ...       63
Average number of grid points per atom       ...    12306
Initializing property integral containers    ... done (  0.0 sec)

SHARK setup successfully completed in   8.3 seconds

Maximum memory used throughout the entire STARTUP-calculation: 192.4 MB


           ************************************************************
           *        Program running with 104 parallel MPI-processes   *
           *              working on a common directory               *
           ************************************************************
-------------------------------------------------------------------------------
                                 ORCA GUESS
                   Start orbitals & Density for SCF / CASSCF
-------------------------------------------------------------------------------

------------
SCF SETTINGS
------------
Hamiltonian:
 Density Functional     Method          .... DFT(GTOs)
 Exchange Functional    Exchange        .... PBE
   PBE kappa parameter   XKappa         ....  0.804000
   PBE mue parameter    XMuePBE         ....  0.219520
 Correlation Functional Correlation     .... P86
 LDA part of GGA corr.  LDAOpt          .... VWN-5
 Gradients option       PostSCFGGA      .... off
 Hybrid DFT is turned on
   Fraction HF Exchange ScalHFX         ....  0.690000
   Scaling of DF-GGA-X  ScalDFX         ....  0.310000
   Scaling of DF-GGA-C  ScalDFC         ....  0.403800
   Scaling of DF-LDA-C  ScalLDAC        ....  0.403800
   Perturbative correction              ....  1.000000


General Settings:
 Integral files         IntName         .... compas3x_hc_c24h14_0pent_13_qz_nori
 Hartree-Fock type      HFTyp           .... RHF
 Total Charge           Charge          ....    0
 Multiplicity           Mult            ....    1
 Number of Electrons    NEL             ....  158
 Basis Dimension        Dim             .... 1788
 Nuclear Repulsion      ENuc            ....   1833.7242792725 Eh

Convergence Acceleration:
 AO-DIIS                CNVDIIS         .... on
   Start iteration      DIISMaxIt       ....    12
   Startup error        DIISStart       ....  0.200000
   # of expansion vecs  DIISMaxEq       ....     5
   Bias factor          DIISBfac        ....   1.050
   Max. coefficient     DIISMaxC        ....  10.000
 MO-DIIS                CNVKDIIS        .... off
 Trust-Rad. Augm. Hess. CNVTRAH         .... auto
   Auto Start mean grad. ratio tolernc. ....  1.125000
   Auto Start start iteration           ....    50
   Auto Start num. interpolation iter.  ....    10
   Max. Number of Micro iterations      ....    24
   Max. Number of Macro iterations      .... Maxiter - #DIIS iter
   Number of Davidson start vectors     ....     2
   Converg. threshold    (grad. norm)   ....   5.000e-05
   Grad. Scal. Fac. for Micro threshold ....   0.100
   Minimum threshold for Micro iter.    ....   1.000e-02
   NR start threshold (gradient norm)   ....   1.000e-04
   Initial trust radius                 ....   0.400
   Minimum AH scaling param. (alpha)    ....   1.000
   Maximum AH scaling param. (alpha)    .... 1000.000
   Quad. conv. algorithm                .... NR
   White noise on init. David. guess    .... on
   Maximum white noise                  ....   0.010
   Pseudo random numbers                .... off
   Inactive MOs                         .... canonical
   Orbital update algorithm             .... Taylor
   Preconditioner                       .... Diag
   Full preconditioner red. dimension   ....   250
 SOSCF                  CNVSOSCF        .... on
   Start iteration      SOSCFMaxIt      ....   150
   Startup grad/error   SOSCFStart      ....  0.003300
   Hessian update       SOSCFHessUp     .... L-BFGS
 Level Shifting         CNVShift        .... on
   Level shift para.    LevelShift      ....    0.2500
   Turn off err/grad.   ShiftErr        ....    0.0010
 Zerner damping         CNVZerner       .... off
 Static damping         CNVDamp         .... on
   Fraction old density DampFac         ....    0.7000
   Max. Damping (<1)    DampMax         ....    0.9800
   Min. Damping (>=0)   DampMin         ....    0.0000
   Turn off err/grad.   DampErr         ....    0.1000

SCF Procedure:
 Maximum # iterations   MaxIter         ....   125
 SCF integral mode      SCFMode         .... Direct
   Integral package                     .... SHARK and LIBINT hybrid scheme
 Reset frequency        DirectResetFreq ....    20
 Integral Threshold     Thresh          ....  1.000e-12 Eh
 Primitive CutOff       TCut            ....  1.000e-13 Eh

Convergence Tolerance:
 Convergence Check Mode ConvCheckMode   .... Total+1el-Energy
 Convergence forced     ConvForced      .... 0
 Energy Change          TolE            ....  1.000e-06 Eh
 1-El. energy change                    ....  1.000e-03 Eh
 Orbital Gradient       TolG            ....  5.000e-05
 Orbital Rotation angle TolX            ....  5.000e-05
 DIIS Error             TolErr          ....  1.000e-06

------------------------------
INITIAL GUESS: MODEL POTENTIAL
------------------------------
Loading Hartree-Fock densities                     ... done
Calculating cut-offs                               ... done
Initializing the effective Hamiltonian             ... done
Setting up the integral package (SHARK)            ... done
Starting the Coulomb interaction                   ... done (   0.3 sec)
Making the grid                                    ... done (   0.3 sec)
Mapping shells                                     ... done
Starting the XC term evaluation                    ... done (   0.2 sec)
  promolecular density results
     # of electrons  =    157.998515767
     EX              =   -127.045352608
     EC              =      0.198878421
     EX+EC           =   -126.846474187
Transforming the Hamiltonian                       ... done (   0.3 sec)
Diagonalizing the Hamiltonian                      ... done (   0.4 sec)
Back transforming the eigenvectors                 ... done (   0.2 sec)
Now organizing SCF variables                       ... done
                      ------------------
                      INITIAL GUESS DONE (   2.2 sec)
                      ------------------
             **** ENERGY FILE WAS UPDATED (compas3x_hc_c24h14_0pent_13_qz_nori.en.tmp) ****
Finished Guess after  18.0 sec
Maximum memory used throughout the entire GUESS-calculation: 199.6 MB


           ************************************************************
           *        Program running with 104 parallel MPI-processes   *
           *              working on a common directory               *
           ************************************************************

-------------------------------------------------------------------------------------------
                                      ORCA LEAN-SCF
                              memory conserving SCF solver
-------------------------------------------------------------------------------------------

----------------------------------------D-I-I-S--------------------------------------------
Iteration    Energy (Eh)           Delta-E    RMSDP     MaxDP     DIISErr   Damp  Time(sec)
-------------------------------------------------------------------------------------------
               ***  Starting incremental Fock matrix formation  ***
    1    -919.0220407622266521     0.00e+00  4.90e-04  1.05e-01  1.47e-01  0.700  70.1
    2    -919.2068939242810757    -1.85e-01  5.51e-04  1.30e-01  9.42e-02  0.700  56.7
                               ***Turning on AO-DIIS***
    3    -919.3168408494154846    -1.10e-01  1.67e-04  1.48e-02  5.72e-02  0.700  54.8
    4    -919.3856650552063456    -6.88e-02  6.68e-04  1.60e-01  3.94e-02  0.000  52.6
    5    -919.5363971373656113    -1.51e-01  1.88e-04  4.81e-02  3.38e-03  0.000  56.2
                              *** Initializing SOSCF ***
---------------------------------------S-O-S-C-F--------------------------------------
Iteration    Energy (Eh)           Delta-E    RMSDP     MaxDP     MaxGrad    Time(sec)
--------------------------------------------------------------------------------------
    6    -919.5367381195403595    -3.41e-04  8.62e-05  2.15e-02  1.35e-03    48.7
               *** Restarting incremental Fock matrix formation ***
    7    -919.5368332922528225    -9.52e-05  6.97e-05  1.69e-02  1.11e-03    62.0
    8    -919.5368871099688022    -5.38e-05  5.09e-05  1.09e-02  5.55e-04    45.9
    9    -919.5368986365613182    -1.15e-05  2.37e-05  5.67e-03  4.74e-04    42.2
   10    -919.5369063330233530    -7.70e-06  8.36e-06  2.00e-03  6.93e-05    38.5
   11    -919.5369063950645341    -6.20e-08  3.11e-06  7.06e-04  4.49e-05    33.8
                 **** Energy Check signals convergence ****

               *****************************************************
               *                     SUCCESS                       *
               *           SCF CONVERGED AFTER  11 CYCLES          *
               *****************************************************

             **** ENERGY FILE WAS UPDATED (compas3x_hc_c24h14_0pent_13_qz_nori.en.tmp) ****

----------------
TOTAL SCF ENERGY
----------------

Total Energy       :       -919.53690639506453 Eh          -25021.87131 eV

Components:
Nuclear Repulsion  :       1833.72427927247668 Eh           49898.17441 eV
Electronic Energy  :      -2753.26118566754121 Eh          -74920.04572 eV
One Electron Energy:      -4888.00500795677817 Eh         -133009.37833 eV
Two Electron Energy:       2134.74382228923696 Eh           58089.33261 eV

Virial components:
Potential Energy   :      -1837.09517634897747 Eh          -49989.90119 eV
Kinetic Energy     :        917.55826995391283 Eh           24968.02988 eV
Virial Ratio       :          2.00215641502665

DFT components:
N(Alpha)           :       79.000002131873 electrons
N(Beta)            :       79.000002131873 electrons
N(Total)           :      158.000004263746 electrons
E(X)               :      -40.062427932783 Eh       
E(C)               :       -2.355079441759 Eh       
E(XC)              :      -42.417507374542 Eh       

---------------
SCF CONVERGENCE
---------------

  Last Energy change         ...    6.2041e-08  Tolerance :   1.0000e-06
  Last MAX-Density change    ...    7.0583e-04  Tolerance :   1.0000e-05
  Last RMS-Density change    ...    3.1067e-06  Tolerance :   1.0000e-06
  Last DIIS Error            ...    1.3504e-03  Tolerance :   1.0000e-06
  Last Orbital Gradient      ...    4.4875e-05  Tolerance :   5.0000e-05
  Last Orbital Rotation      ...    1.3835e-04  Tolerance :   5.0000e-05


----------------
ORBITAL ENERGIES
----------------

  NO   OCC          E(Eh)            E(eV) 
   0   2.0000     -10.837433      -294.9015 
   1   2.0000     -10.835184      -294.8403 
   2   2.0000     -10.834993      -294.8352 
   3   2.0000     -10.834481      -294.8212 
   4   2.0000     -10.834264      -294.8153 
   5   2.0000     -10.833074      -294.7829 
   6   2.0000     -10.832061      -294.7554 
   7   2.0000     -10.831174      -294.7312 
   8   2.0000     -10.831002      -294.7266 
   9   2.0000     -10.830995      -294.7263 
  10   2.0000     -10.822806      -294.5035 
  11   2.0000     -10.822698      -294.5006 
  12   2.0000     -10.822352      -294.4912 
  13   2.0000     -10.822048      -294.4829 
  14   2.0000     -10.821937      -294.4799 
  15   2.0000     -10.821838      -294.4772 
  16   2.0000     -10.821660      -294.4723 
  17   2.0000     -10.821612      -294.4710 
  18   2.0000     -10.821194      -294.4597 
  19   2.0000     -10.821001      -294.4544 
  20   2.0000     -10.820840      -294.4500 
  21   2.0000     -10.820494      -294.4406 
  22   2.0000     -10.820019      -294.4277 
  23   2.0000     -10.819002      -294.4000 
  24   2.0000      -1.098500       -29.8917 
  25   2.0000      -1.068754       -29.0823 
  26   2.0000      -1.047410       -28.5015 
  27   2.0000      -1.017431       -27.6857 
  28   2.0000      -0.995580       -27.0911 
  29   2.0000      -0.985048       -26.8045 
  30   2.0000      -0.944748       -25.7079 
  31   2.0000      -0.922365       -25.0988 
  32   2.0000      -0.920746       -25.0548 
  33   2.0000      -0.909538       -24.7498 
  34   2.0000      -0.899198       -24.4684 
  35   2.0000      -0.852115       -23.1872 
  36   2.0000      -0.807526       -21.9739 
  37   2.0000      -0.780399       -21.2357 
  38   2.0000      -0.772934       -21.0326 
  39   2.0000      -0.771158       -20.9843 
  40   2.0000      -0.743447       -20.2302 
  41   2.0000      -0.730587       -19.8803 
  42   2.0000      -0.685255       -18.6467 
  43   2.0000      -0.678652       -18.4670 
  44   2.0000      -0.654985       -17.8231 
  45   2.0000      -0.642646       -17.4873 
  46   2.0000      -0.632046       -17.1989 
  47   2.0000      -0.614703       -16.7269 
  48   2.0000      -0.597411       -16.2564 
  49   2.0000      -0.582068       -15.8389 
  50   2.0000      -0.576725       -15.6935 
  51   2.0000      -0.571025       -15.5384 
  52   2.0000      -0.562106       -15.2957 
  53   2.0000      -0.543791       -14.7973 
  54   2.0000      -0.533738       -14.5238 
  55   2.0000      -0.533644       -14.5212 
  56   2.0000      -0.525969       -14.3124 
  57   2.0000      -0.518312       -14.1040 
  58   2.0000      -0.509293       -13.8586 
  59   2.0000      -0.505727       -13.7615 
  60   2.0000      -0.494925       -13.4676 
  61   2.0000      -0.485742       -13.2177 
  62   2.0000      -0.478933       -13.0324 
  63   2.0000      -0.476732       -12.9725 
  64   2.0000      -0.462827       -12.5942 
  65   2.0000      -0.454331       -12.3630 
  66   2.0000      -0.445155       -12.1133 
  67   2.0000      -0.438463       -11.9312 
  68   2.0000      -0.422586       -11.4992 
  69   2.0000      -0.416305       -11.3282 
  70   2.0000      -0.408383       -11.1127 
  71   2.0000      -0.395381       -10.7589 
  72   2.0000      -0.377925       -10.2838 
  73   2.0000      -0.341613        -9.2958 
  74   2.0000      -0.311583        -8.4786 
  75   2.0000      -0.302210        -8.2235 
  76   2.0000      -0.293593        -7.9891 
  77   2.0000      -0.283986        -7.7276 
  78   2.0000      -0.212611        -5.7854 
  79   0.0000      -0.027060        -0.7363 
  80   0.0000       0.037289         1.0147 
  81   0.0000       0.045567         1.2399 
  82   0.0000       0.059391         1.6161 
  83   0.0000       0.061416         1.6712 
  84   0.0000       0.073905         2.0111 
  85   0.0000       0.079355         2.1594 
  86   0.0000       0.081194         2.2094 
  87   0.0000       0.088791         2.4161 
  88   0.0000       0.092599         2.5197 
  89   0.0000       0.094202         2.5634 
*Only the first 10 virtual orbitals were printed.
-------
TIMINGS
-------

Total SCF time: 0 days 0 hours 9 min 38 sec 

Total time                  ....     578.599 sec
Sum of individual times     ....     578.565 sec  (100.0%)

SCF preparation             ....      15.411 sec  (  2.7%)
Fock matrix formation       ....     541.131 sec  ( 93.5%)
  Startup                   ....       1.375 sec  (  0.3% of F)
  Coulomb+Exchange Fock     ....     515.485 sec  ( 95.3% of F)
  XC integration            ....      20.712 sec  (  3.8% of F)
    XC Preparation          ....       0.000 sec  (  0.0% of XC)
    Basis function eval.    ....       0.982 sec  (  4.7% of XC)
    Density eval.           ....       2.077 sec  ( 10.0% of XC)
    XC-Functional eval.     ....       0.029 sec  (  0.1% of XC)
    XC-Potential eval.      ....       2.444 sec  ( 11.8% of XC)
Diagonalization             ....       0.000 sec  (  0.0%)
Density matrix formation    ....       3.178 sec  (  0.5%)
Total Energy calculation    ....       1.614 sec  (  0.3%)
Population analysis         ....       0.000 sec  (  0.0%)
Orbital Transformation      ....       2.291 sec  (  0.4%)
Orbital Orthonormalization  ....       0.000 sec  (  0.0%)
DIIS solution               ....      10.138 sec  (  1.8%)
SOSCF solution              ....       4.686 sec  (  0.8%)
Finished LeanSCF after 579.5 sec

Maximum memory used throughout the entire LEANSCF-calculation: 244.8 MB


           ************************************************************
           *        Program running with 104 parallel MPI-processes   *
           *              working on a common directory               *
           ************************************************************

------------------------------------------------------------------------------
                                ORCA  MP2 
------------------------------------------------------------------------------


----------
MP2 ENERGY (disk based algorithm)
----------

Dimension of the basis                      ... 1788
Memory devoted to MP2                       ... 4096 MB   
Data format for buffers                     ... DOUBLE
Compression type for matrix containers      ... UNCOMPRESSED
Scaling for aa/bb pairs                     ...   5.710e-02
Scaling for ab pairs                        ...   5.979e-01
Overall scaling of the MP2 energy           ...   1.000e+00

-------------------------
SHARK HALF TRANSFORMATION (Exchange order)
-------------------------

Number of basis functions                   ...   1788
Number of operators                         ...      1
   Operator  0:    0-  78 (p-index in (p*|q*))
   Operator  0:    0-  78 (q-index in (p*|q*)
Integral generator used                     ... SHARK
Contraction scheme used                     ... SEGMENTED CONTRACTION
MaxCore in resort                           ...   4096 MB

Half transformed integrals for op=   0      ... compas3x_hc_c24h14_0pent_13_qz_nori.SHARK_MNPQ0.tmp
Resorted half transformed integrals         ... compas3x_hc_c24h14_0pent_13_qz_nori.KAO_aa.tmp


ORCA finished by error termination in MP2
Calling Command: mpirun -np 104  /apps/orca/6.0.1/orca_mp2_mpi compas3x_hc_c24h14_0pent_13_qz_nori.mp2inp.tmp compas3x_hc_c24h14_0pent_13_qz_nori 
[file orca_tools/qcmsg.cpp, line 394]: 
  .... aborting the run

