
                                 *****************
                                 * O   R   C   A *
                                 *****************

                                            #,                                       
                                            ###                                      
                                            ####                                     
                                            #####                                    
                                            ######                                   
                                           ########,                                 
                                     ,,################,,,,,                         
                               ,,#################################,,                 
                          ,,##########################################,,             
                       ,#########################################, ''#####,          
                    ,#############################################,,   '####,        
                  ,##################################################,,,,####,       
                ,###########''''           ''''###############################       
              ,#####''   ,,,,##########,,,,          '''####'''          '####       
            ,##' ,,,,###########################,,,                        '##       
           ' ,,###''''                  '''############,,,                           
         ,,##''                                '''############,,,,        ,,,,,,###''
      ,#''                                            '''#######################'''  
     '                                                          ''''####''''         
             ,#######,   #######,   ,#######,      ##                                
            ,#'     '#,  ##    ##  ,#'     '#,    #''#        ,####,   ,####,        
            ##       ##  ##   ,#'  ##            #'  '#       #'       #'  '#        
            ##       ##  #######   ##           ,######,      #####,   #    #        
            '#,     ,#'  ##    ##  '#,     ,#' ,#      #,     #,   #   #,  ,#        
             '#######'   ##     ##  '#######'  #'      '#     '####' # '####'        



                #########################################################
                #                        -***-                          #
                #          Department of theory and spectroscopy        #
                #                                                       #
                #                      Frank Neese                      #
                #                                                       #
                #     Directorship, Architecture, Infrastructure        #
                #                    SHARK, DRIVERS                     #
                #        Core code/Algorithms in most modules           #
                #                                                       #
                #        Max Planck Institute fuer Kohlenforschung      #
                #                Kaiser Wilhelm Platz 1                 #
                #                 D-45470 Muelheim/Ruhr                 #
                #                      Germany                          #
                #                                                       #
                #                  All rights reserved                  #
                #                        -***-                          #
                #########################################################


                         Program Version 6.0.1  -  RELEASE   -


 With contributions from (in alphabetic order):
[Max-Planck-Institut fuer Kohlenforschung]                               
  Daniel Aravena         : Magnetic Suceptibility                        
  Michael Atanasov       : Ab Initio Ligand Field Theory (pilot matlab implementation)
  Alexander A. Auer      : GIAO ZORA, VPT2 properties, NMR spectrum      
  Ute Becker             : All parallelization in ORCA, NUMFREQ, NUMCALC 
  Giovanni Bistoni       : ED, misc. LED, open-shell LED, HFLD           
  Martin Brehm           : Molecular dynamics                            
  Dmytro Bykov           : pre 5.0 version of the SCF Hessian            
  Marcos Casanova-Páez   : Triplet and SCS-CIS(D). UHF-(DLPNO)-IP/EA/STEOM-CCSD. UHF-CVS-IP/STEOM-CCSD   
  Vijay G. Chilkuri      : MRCI spin determinant printing, contributions to CSF-ICE 
  Pauline Colinet        : FMM embedding                                 
  Dipayan Datta          : RHF DLPNO-CCSD density                        
  Achintya Kumar Dutta   : EOM-CC, STEOM-CC                              
  Nicolas Foglia         : Exact transition moments, OPA infrastructure, MCD improvements    
  Dmitry Ganyushin       : Spin-Orbit,Spin-Spin,Magnetic field MRCI      
  Miquel Garcia-Rates    : C-PCM and meta-GGA Hessian, CCSD/C-PCM, Gaussian charge scheme 
  Tiago L. C. Gouveia    : GS-ROHF, GS-ROCIS                             
  Yang Guo               : DLPNO-NEVPT2, F12-NEVPT2, CIM, IAO-localization        
  Andreas Hansen         : Spin unrestricted coupled pair/coupled cluster methods 
  Ingolf Harden          : AUTO-CI MPn and infrastructure                
  Benjamin Helmich-Paris : MC-RPA, TRAH-(SCF,CASSCF), AVAS, COSX integrals, SCF dyn. polar. 
  Lee Huntington         : MR-EOM, pCC                                   
  Robert Izsak           : Overlap fitted RIJCOSX, COSX-SCS-MP3, EOM     
  Riya Kayal             : Wick's Theorem for AUTO-CI, AUTO-CI UHF-CCSDT 
  Emily Kempfer          : AUTO-CI, RHF CISDT and CCSDT                  
  Christian Kollmar      : KDIIS, OOCD, Brueckner-CCSD(T), CCSD density, CASPT2, CASPT2-K, improved NEVPT2 
  Axel Koslowski         : Symmetry handling                             
  Simone Kossmann        : meta-GGA functionals, TD-DFT gradient, OOMP2, (MP2 Hessian; deprecated post 5.0) 
  Lucas Lang             : DCDCAS                                        
  Marvin Lechner         : AUTO-CI (C++ implementation), FIC-MRCC        
  Spencer Leger          : CASSCF response                               
  Dagmar Lenk            : GEPOL surface, SMD, ORCA-2-JSON               
  Dimitrios Liakos       : Extrapolation schemes; Compound Job, initial MDCI parallelization 
  Dimitrios Manganas     : Further ROCIS development; embedding schemes. LFT, Crystal Embedding 
  Dimitrios Pantazis     : SARC Basis sets                               
  Anastasios Papadopoulos: AUTO-CI, single reference methods and gradients 
  Taras Petrenko         : pre 6.0 DFT Hessian and TD-DFT gradient, (ASA, deprecated), ECA, 1-Electron XAS/XES, NRVS 
  Peter Pinski           : DLPNO-MP2, DLPNO-MP2 Gradient                 
  Christoph Reimann      : Effective Core Potentials                     
  Marius Retegan         : Local ZFS, SOC                                
  Christoph Riplinger    : Optimizer, TS searches, QM/MM, DLPNO-CCSD(T), (RO)-DLPNO pert. Triples 
  Michael Roemelt        : Original ROCIS implementation                 
  Masaaki Saitow         : Open-shell DLPNO-CCSD energy and density      
  Barbara Sandhoefer     : DKH picture change effects                    
  Kantharuban Sivalingam : CASSCF convergence/infrastructure, NEVPT2 and variants, FIC-MRCI 
  Bernardo de Souza      : ESD, SOC TD-DFT                               
  Georgi L. Stoychev     : AutoAux, RI-MP2 NMR, DLPNO-MP2 response, X2C  
  Van Anh Tran           : RI-MP2 g-tensors                              
  Willem Van den Heuvel  : Paramagnetic NMR                              
  Zikuan Wang            : NOTCH, Electric field optimization            
  Frank Wennmohs         : Technical directorship and infrastructure     
  Hang Xu                : AUTO-CI-Response properties                   
                                                                         
[FACCTs GmbH]                                                            
  Markus Bursch, Miquel Garcia-Rates, Christoph Riplinger, Bernardo de Souza, Georgi L. Stoychev 
                                                                 
  APM, Basis sets (HGBS, AHGBS, def-TZVP (Ac-Lr), def2-XVPD (La-Lu)), CI-OPT, improved COSX, DLPNO-Multilevel,           
  DOCKER, DRACO, updates on ESD, GOAT, IRC, LR-CPCM, MBIS, meta-GGA TD-DFT gradient, ML-optimized integration grids, 
  MM, NACMEs, nearIR, NEB, NEB-TS, NL-DFT gradient (VV10), 2- and 3-layer-ONIOM, interface openCOSMO-RS, QMMM,   
  Crystal-QMMM, SF, symmetry and pop. for TD-DFT, r2SCAN hybrids, SOLVATOR                                   
                                                                         
[Other institutions]                                                     
  V. Asgeirsson          : NEB                                           
  Christoph Bannwarth    : sTDA-DFT, sTD-DFT, PBEh-3c, B97-3c, D3        
  Sebastian Ehlert       : rSCAN, r2SCAN, r2SCAN-3c, D4, dhf basis sets  
  Marvin Friede          : D4 for Fr, Ra, Ac-Lr                          
  Lars Goerigk           : TD-DFT with DH, B97 family of functionals     
  Stefan Grimme          : VdW corrections, initial TS optimization, DFT functionals, gCP, sTDA/sTD-DF 
  Waldemar Hujo          : DFT-NL                                        
  H. Jonsson             : NEB                                           
  Holger Kruse           : gCP                                           
  Marcel Mueller         : wB97X-3c, vDZP basis set                      
  Hagen Neugebauer       : wr2SCAN                                       
  Tobias Risthaus        : range-separated hybrid DFT                    
  Lukas Wittmann         : regularized MP2, r2SCAN double-hybrids, wr2SCAN        
                                                                         
We gratefully acknowledge several colleagues who have allowed us to      
interface, adapt or use parts of their codes:                            
  Ed Valeev, F. Pavosevic, A. Kumar             : LibInt (2-el integral package), F12 methods 
  Garnet Chan, S. Sharma, J. Yang, R. Olivares  : DMRG                   
  Ulf Ekstrom                                   : XCFun DFT Library      
  Mihaly Kallay                                 : mrcc  (arbitrary order and MRCC methods)
  Frank Weinhold                                : gennbo (NPA and NBO analysis)           
  Simon Mueller                                 : openCOSMO-RS                            
  Christopher J. Cramer and Donald G. Truhlar   : smd solvation model                     
  S Lehtola, MJT Oliveira, MAL Marques          : LibXC Library                           
  Liviu Ungur et al                             : ANISO software                          


 Your calculation uses the libint2 library for the computation of 2-el integrals
 For citations please refer to: http://libint.valeyev.net

 Your ORCA version has been built with support for libXC version: 6.2.2
 For citations please refer to: https://libxc.gitlab.io

 This ORCA versions uses:
   CBLAS   interface :  Fast vector & matrix operations
   LAPACKE interface :  Fast linear algebra routines
   SCALAPACK package :  Parallel linear algebra routines
   Shared memory     :  Shared parallel matrices
   BLAS/LAPACK       :  OpenBLAS 0.3.27  USE64BITINT DYNAMIC_ARCH NO_AFFINITY SapphireRapids SINGLE_THREADED
        Core in use  :  SapphireRapids
   Copyright (c) 2011-2014, The OpenBLAS Project


Warning! Weird basis set assignment to AuxJK basis!


***************************************
The coordinates will be read from file: /g/data/kx58/rs2200/dhdft/inputs/compas3x-xyzs/hc_c42h22_0pent_4.xyz
***************************************


Your calculation utilizes the atom-pairwise dispersion correction
based on EEQ partial charges (D4)


================================================================================

----- Orbital basis set information -----
Your calculation utilizes the basis: def2-QZVPP
   F. Weigend and R. Ahlrichs, Phys. Chem. Chem. Phys. 7, 3297 (2005).

----- AuxC basis set information -----
Your calculation utilizes the auxiliary basis: def2-QZVPP/C
  H-La, Hf-Rn : A. Hellweg, C. Hattig, S. Hofener and W. Klopper, Theor. Chem. Acc. 117, 587 (2007).
        Ce-Lu : J. Chmela and M. E. Harding, Mol. Phys. (2018).

----- AuxJK basis set information -----
Your calculation utilizes the auxiliary basis: def2-QZVPP/C
  H-La, Hf-Rn : A. Hellweg, C. Hattig, S. Hofener and W. Klopper, Theor. Chem. Acc. 117, 587 (2007).
        Ce-Lu : J. Chmela and M. E. Harding, Mol. Phys. (2018).

================================================================================
                                        WARNINGS
                       Please study these warnings very carefully!
================================================================================


WARNING: No MP2 level density has been requested!
         To calculate MP2 level properties use
         %mp2 Density relaxed end
         or
         %mp2 Density unrelaxed end
         Otherwise for double-hybrid DFT only the energy is correct!

================================================================================
                                       INPUT FILE
================================================================================
NAME = compas3x_hc_c42h22_0pent_4_qz_riri.inp
|  1> ! RKS revDSD-PBEP86-D4/2021 defgrid3  RIJK NOPOP NoFrozencore NoUseSym
|  2> 
|  3> %basis
|  4> Basis "def2-QZVPP"
|  5> AuxJK "def2-QZVPP/C"
|  6> AuxC "def2-QZVPP/C"
|  7> end
|  8> 
|  9> %method
| 10> ScalHFX 0.69
| 11> ScalDFX 0.31
| 12> ScalDFC 0.4038
| 13> ScalLDAC 0.4038
| 14> 
| 15> D4S6 0.4612
| 16> D4S8 0.0
| 17> D4A1 0.44
| 18> D4A2 3.60
| 19> end
| 20> 
| 21> %mp2
| 22> PS 0.5979
| 23> PT 0.0571
| 24> 
| 25> end
| 26> 
| 27> %pal
| 28> nprocs 104
| 29> end
| 30> 
| 31> *XYZFILE 0 1 /g/data/kx58/rs2200/dhdft/inputs/compas3x-xyzs/hc_c42h22_0pent_4.xyz
| 32> 
| 33>                          ****END OF INPUT****
================================================================================

                       ****************************
                       * Single Point Calculation *
                       ****************************

---------------------------------
CARTESIAN COORDINATES (ANGSTROEM)
---------------------------------
  C      3.112270   -1.818306   -1.196968
  C      1.942847   -2.613528   -1.303943
  C      0.668689   -1.997665   -1.416954
  C      0.548439   -0.594710   -1.306745
  C      1.699390    0.167378   -0.874095
  C      2.972254   -0.387475   -1.021914
  C      4.346212   -2.465476   -1.175777
  C      4.436656   -3.847212   -1.232765
  C      3.302348   -4.624320   -1.324479
  C      2.042102   -4.023586   -1.372661
  C      0.851857   -4.795551   -1.517963
  C     -0.353978   -4.203346   -1.669338
  C     -0.482942   -2.784492   -1.659101
  C     -1.705590   -2.151661   -1.890295
  C     -1.774632   -0.775028   -1.946207
  C     -0.662467   -0.002888   -1.659229
  C      1.570435    1.494794   -0.339787
  C      2.690117    2.372558   -0.446446
  C      3.948245    1.818046   -0.806717
  C      4.096630    0.481932   -0.981510
  C      0.420189    1.971320    0.325411
  C      0.229477    3.355767    0.484280
  C      1.311345    4.249639    0.233232
  C      2.545824    3.720581   -0.145369
  C     -1.037460    3.873033    0.881578
  C     -1.164210    5.234470    1.069701
  C     -0.088860    6.106722    0.861262
  C      1.120583    5.634045    0.440527
  C     -0.563579    1.081294    0.915657
  C     -1.896118    1.562018    1.112558
  C     -2.157007    2.950292    1.038857
  C     -2.934489    0.646337    1.403066
  C     -4.237028    1.144208    1.537003
  C     -4.497646    2.487030    1.392706
  C     -3.468723    3.387493    1.158115
  C     -0.253418   -0.192846    1.308229
  C     -1.259223   -1.139371    1.605718
  C     -2.620039   -0.752885    1.562874
  C     -0.921592   -2.487125    1.821143
  C     -1.896063   -3.440685    1.950831
  C     -3.239728   -3.069906    1.875660
  C     -3.592066   -1.754699    1.690427
  H      5.260118   -1.898907   -1.094043
  H      5.409962   -4.315573   -1.203068
  H      3.377897   -5.701014   -1.374663
  H      0.945806   -5.872392   -1.531013
  H     -1.248361   -4.793473   -1.810663
  H     -2.588274   -2.751832   -2.056713
  H     -2.707160   -0.289981   -2.195404
  H     -0.739400    1.072979   -1.706822
  H      4.794965    2.483621   -0.891875
  H      5.080597    0.084118   -1.170926
  H      3.406200    4.372153   -0.202831
  H     -2.103669    5.656897    1.389616
  H     -0.233046    7.164448    1.027981
  H      1.946678    6.305331    0.256219
  H     -5.051741    0.476619    1.767677
  H     -5.511099    2.850541    1.483092
  H     -3.708079    4.435289    1.069091
  H      0.774043   -0.526178    1.318433
  H      0.123662   -2.760846    1.849077
  H     -1.631016   -4.477348    2.097635
  H     -4.007664   -3.824764    1.963769
  H     -4.639471   -1.502885    1.629859

----------------------------
CARTESIAN COORDINATES (A.U.)
----------------------------
  NO LB      ZA    FRAG     MASS         X           Y           Z
   0 C     6.0000    0    12.011    5.881338   -3.436101   -2.261941
   1 C     6.0000    0    12.011    3.671448   -4.938852   -2.464095
   2 C     6.0000    0    12.011    1.263640   -3.775040   -2.677654
   3 C     6.0000    0    12.011    1.036399   -1.123839   -2.469390
   4 C     6.0000    0    12.011    3.211382    0.316299   -1.651801
   5 C     6.0000    0    12.011    5.616746   -0.732222   -1.931138
   6 C     6.0000    0    12.011    8.213150   -4.659075   -2.221896
   7 C     6.0000    0    12.011    8.384066   -7.270177   -2.329588
   8 C     6.0000    0    12.011    6.240534   -8.738699   -2.502902
   9 C     6.0000    0    12.011    3.859014   -7.603476   -2.593954
  10 C     6.0000    0    12.011    1.609777   -9.062278   -2.868535
  11 C     6.0000    0    12.011   -0.668921   -7.943172   -3.154592
  12 C     6.0000    0    12.011   -0.912627   -5.261927   -3.135246
  13 C     6.0000    0    12.011   -3.223098   -4.066050   -3.572139
  14 C     6.0000    0    12.011   -3.353569   -1.464591   -3.677798
  15 C     6.0000    0    12.011   -1.251881   -0.005457   -3.135489
  16 C     6.0000    0    12.011    2.967693    2.824752   -0.642105
  17 C     6.0000    0    12.011    5.083584    4.483484   -0.843661
  18 C     6.0000    0    12.011    7.461102    3.435609   -1.524474
  19 C     6.0000    0    12.011    7.741509    0.910719   -1.854785
  20 C     6.0000    0    12.011    0.794041    3.725256    0.614938
  21 C     6.0000    0    12.011    0.433649    6.341482    0.915157
  22 C     6.0000    0    12.011    2.478082    8.030655    0.440744
  23 C     6.0000    0    12.011    4.810911    7.030879   -0.274708
  24 C     6.0000    0    12.011   -1.960516    7.318972    1.665941
  25 C     6.0000    0    12.011   -2.200039    9.891714    2.021442
  26 C     6.0000    0    12.011   -0.167920   11.540032    1.627550
  27 C     6.0000    0    12.011    2.117595   10.646803    0.832476
  28 C     6.0000    0    12.011   -1.065011    2.043350    1.730341
  29 C     6.0000    0    12.011   -3.583143    2.951786    2.102429
  30 C     6.0000    0    12.011   -4.076153    5.575244    1.963156
  31 C     6.0000    0    12.011   -5.545381    1.221399    2.651410
  32 C     6.0000    0    12.011   -8.006823    2.162241    2.904515
  33 C     6.0000    0    12.011   -8.499319    4.699805    2.631834
  34 C     6.0000    0    12.011   -6.554937    6.401433    2.188520
  35 C     6.0000    0    12.011   -0.478890   -0.364427    2.472195
  36 C     6.0000    0    12.011   -2.379586   -2.153099    3.034368
  37 C     6.0000    0    12.011   -4.951156   -1.422746    2.953404
  38 C     6.0000    0    12.011   -1.741556   -4.699986    3.441462
  39 C     6.0000    0    12.011   -3.583041   -6.501953    3.686536
  40 C     6.0000    0    12.011   -6.122198   -5.801282    3.544483
  41 C     6.0000    0    12.011   -6.788022   -3.315901    3.194444
  42 H     1.0000    0     1.008    9.940182   -3.588413   -2.067441
  43 H     1.0000    0     1.008   10.223346   -8.155251   -2.273469
  44 H     1.0000    0     1.008    6.383300  -10.773354   -2.597737
  45 H     1.0000    0     1.008    1.787314  -11.097212   -2.893195
  46 H     1.0000    0     1.008   -2.359060   -9.058351   -3.421657
  47 H     1.0000    0     1.008   -4.891129   -5.200209   -3.886625
  48 H     1.0000    0     1.008   -5.115790   -0.547984   -4.148713
  49 H     1.0000    0     1.008   -1.397263    2.027637   -3.225426
  50 H     1.0000    0     1.008    9.061170    4.693363   -1.685399
  51 H     1.0000    0     1.008    9.600936    0.158960   -2.212729
  52 H     1.0000    0     1.008    6.436785    8.262172   -0.383296
  53 H     1.0000    0     1.008   -3.975358   10.689986    2.625993
  54 H     1.0000    0     1.008   -0.440394   13.538845    1.942602
  55 H     1.0000    0     1.008    3.678688   11.915348    0.484183
  56 H     1.0000    0     1.008   -9.546406    0.900679    3.340425
  57 H     1.0000    0     1.008  -10.414468    5.386742    2.802638
  58 H     1.0000    0     1.008   -7.007253    8.381481    2.020289
  59 H     1.0000    0     1.008    1.462730   -0.994333    2.491476
  60 H     1.0000    0     1.008    0.233687   -5.217242    3.494249
  61 H     1.0000    0     1.008   -3.082174   -8.460962    3.963956
  62 H     1.0000    0     1.008   -7.573388   -7.227757    3.710985
  63 H     1.0000    0     1.008   -8.767329   -2.840040    3.079988

--------------------------------
INTERNAL COORDINATES (ANGSTROEM)
--------------------------------
 C      0   0   0     0.000000000000     0.00000000     0.00000000
 C      1   0   0     1.418228667753     0.00000000     0.00000000
 C      2   1   0     1.419695503370   120.18565754     0.00000000
 C      3   2   1     1.412405565226   120.07255793   354.49839900
 C      4   3   2     1.446600859320   118.61271709   350.50863113
 C      5   4   3     1.396386103743   118.96371392    21.93760624
 C      1   2   3     1.393517278811   118.09178961   184.09446291
 C      7   1   2     1.385864732359   121.34532087   358.85283525
 C      8   7   1     1.378028735798   120.74806451     0.58132691
 C      9   8   7     1.396933330854   120.15766420     0.54413857
 C     10   9   8     1.426087812565   121.57971639   177.61544025
 C     11  10   9     1.351909526698   121.24680548   185.26151640
 C      3   2   1     1.415621695455   120.17367295   173.60828239
 C     13   3   2     1.395992454688   119.26605075   185.90266440
 C     14  13   3     1.379496846106   120.19371057     3.13560210
 C     15  14  13     1.384004892173   120.53881631   354.32130732
 C      5   4   3     1.436713881978   121.77263179   199.78961288
 C     17   5   4     1.426720422509   118.04630662   205.25763937
 C     18  17   5     1.421325205367   118.26878237   346.82798123
 C     19  18  17     1.355644633630   120.93650990   356.85809240
 C     17   5   4     1.411606859609   124.07547075    27.50982677
 C     21  17   5     1.406521981582   119.73516993   197.56426196
 C     22  21  17     1.425646983317   119.62813837   346.80999286
 C     18  17   5     1.388752650540   119.96296169   169.55872835
 C     22  21  17     1.424970201017   120.62050778   166.23097300
 C     25  22  21     1.380204935072   118.53638752   177.77377072
 C     26  25  22     1.400232262818   121.57716342     0.91232706
 C     27  26  25     1.364988155231   120.70624096     1.11726285
 C     21  17   5     1.452011125247   122.46022437    20.40080306
 C     29  21  17     1.430217950378   118.76277645   203.31119181
 C     30  29  21     1.414496700640   119.64060350   344.95415520
 C     30  29  21     1.414596265383   119.64391186   166.10423503
 C     32  30  29     1.400865061790   118.17057482   182.52132055
 C     33  32  30     1.375468031262   120.87148148   359.86092479
 C     34  33  32     1.387281137063   120.72296461   357.68204424
 C     29  21  17     1.368848652302   122.25007429    24.35161055
 C     36  29  21     1.412817133458   121.51223578   193.97092597
 C     37  36  29     1.415283255746   119.68230642   356.87191002
 C     37  36  29     1.406003093686   120.23227341   170.96040235
 C     39  37  36     1.369558616035   120.73418962   187.88458502
 C     40  39  37     1.395908859003   119.66018974   359.64881971
 C     41  40  39     1.374126102889   120.55074198   359.13791915
 H      7   1   2     1.078381280567   120.50318887   180.09336866
 H      8   7   1     1.080539911413   119.32840371   180.67599454
 H      9   8   7     1.080506782125   120.49577830   179.62958361
 H     11  10   9     1.081010127742   117.89954759     3.59653788
 H     12  11  10     1.080807054119   120.90147110   178.02711856
 H     14  13   3     1.080292266731   119.29359970   181.14091638
 H     15  14  13     1.080267257825   120.04158449   175.60318572
 H     16  15  14     1.079663589342   119.31036712   180.14418956
 H     19  18  17     1.080359039780   118.25385398   179.72192345
 H     20  19  18     1.078111437152   119.09290932   185.22047258
 H     24  18  17     1.080784322415   119.40309150   178.31780636
 H     26  25  22     1.078597291058   120.44654013   181.23726666
 H     27  26  25     1.080448851270   118.97157075   180.43822963
 H     28  27  26     1.080289408662   120.99511986   178.56731769
 H     33  32  30     1.078259274074   120.19591245   180.59320838
 H     34  33  32     1.080461685961   119.82840595   178.97593545
 H     35  34  33     1.078467986549   118.68368236   181.16060045
 H     36  29  21     1.080227315552   120.36139029     8.79516297
 H     39  37  36     1.080860106236   118.61593751     5.84885392
 H     40  39  37     1.080033148019   120.43454142   178.84514645
 H     41  40  39     1.080416993814   119.61724614   179.11911501
 H     42  41  40     1.078950877886   118.67630356   179.57857160

---------------------------
INTERNAL COORDINATES (A.U.)
---------------------------
 C      0   0   0     0.000000000000     0.00000000     0.00000000
 C      1   0   0     2.680063777328     0.00000000     0.00000000
 C      2   1   0     2.682835694930   120.18565754     0.00000000
 C      3   2   1     2.669059708303   120.07255793   354.49839900
 C      4   3   2     2.733679449210   118.61271709   350.50863113
 C      5   4   3     2.638787313287   118.96371392    21.93760624
 C      1   2   3     2.633366019840   118.09178961   184.09446291
 C      7   1   2     2.618904802819   121.34532087   358.85283525
 C      8   7   1     2.604096915332   120.74806451     0.58132691
 C      9   8   7     2.639821422661   120.15766420     0.54413857
 C     10   9   8     2.694915408670   121.57971639   177.61544025
 C     11  10   9     2.554738763298   121.24680548   185.26151640
 C      3   2   1     2.675137313648   120.17367295   173.60828239
 C     13   3   2     2.638043424380   119.26605075   185.90266440
 C     14  13   3     2.606871241748   120.19371057     3.13560210
 C     15  14  13     2.615390214213   120.53881631   354.32130732
 C      5   4   3     2.714995769742   121.77263179   199.78961288
 C     17   5   4     2.696110868215   118.04630662   205.25763937
 C     18  17   5     2.685915385383   118.26878237   346.82798123
 C     19  18  17     2.561797092480   120.93650990   356.85809240
 C     17   5   4     2.667550373426   124.07547075    27.50982677
 C     21  17   5     2.657941346529   119.73516993   197.56426196
 C     22  21  17     2.694082362119   119.62813837   346.80999286
 C     18  17   5     2.624362177278   119.96296169   169.55872835
 C     22  21  17     2.692803428920   120.62050778   166.23097300
 C     25  22  21     2.608209335973   118.53638752   177.77377072
 C     26  25  22     2.646055500607   121.57716342     0.91232706
 C     27  26  25     2.579453789432   120.70624096     1.11726285
 C     21  17   5     2.743903370124   122.46022437    20.40080306
 C     29  21  17     2.702720238033   118.76277645   203.31119181
 C     30  29  21     2.673011381545   119.64060350   344.95415520
 C     30  29  21     2.673199531643   119.64391186   166.10423503
 C     32  30  29     2.647251317361   118.17057482   182.52132055
 C     33  32  30     2.599257885048   120.87148148   359.86092479
 C     34  33  32     2.621581419803   120.72296461   357.68204424
 C     29  21  17     2.586749071639   122.25007429    24.35161055
 C     36  29  21     2.669837459548   121.51223578   193.97092597
 C     37  36  29     2.674497755285   119.68230642   356.87191002
 C     37  36  29     2.656960790513   120.23227341   170.96040235
 C     39  37  36     2.588090708659   120.73418962   187.88458502
 C     40  39  37     2.637885451430   119.66018974   359.64881971
 C     41  40  39     2.596722007934   120.55074198   359.13791915
 H      7   1   2     2.037845288219   120.50318887   180.09336866
 H      8   7   1     2.041924509342   119.32840371   180.67599454
 H      9   8   7     2.041861904061   120.49577830   179.62958361
 H     11  10   9     2.042813089428   117.89954759     3.59653788
 H     12  11  10     2.042429335895   120.90147110   178.02711856
 H     14  13   3     2.041456528714   119.29359970   181.14091638
 H     15  14  13     2.041409268732   120.04158449   175.60318572
 H     16  15  14     2.040268500623   119.31036712   180.14418956
 H     19  18  17     2.041582711490   118.25385398   179.72192345
 H     20  19  18     2.037335358065   119.09290932   185.22047258
 H     24  18  17     2.042386379200   119.40309150   178.31780636
 H     26  25  22     2.038253488888   120.44654013   181.23726666
 H     27  26  25     2.041752430610   118.97157075   180.43822963
 H     28  27  26     2.041451127746   120.99511986   178.56731769
 H     33  32  30     2.037614729361   120.19591245   180.59320838
 H     34  33  32     2.041776684661   119.82840595   178.97593545
 H     35  34  33     2.038009138778   118.68368236   181.16060045
 H     36  29  21     2.041333788775   120.36139029     8.79516297
 H     39  37  36     2.042529589867   118.61593751     5.84885392
 H     40  39  37     2.040966865313   120.43454142   178.84514645
 H     41  40  39     2.041692228742   119.61724614   179.11911501
 H     42  41  40     2.038921671159   118.67630356   179.57857160

---------------------
BASIS SET INFORMATION
---------------------
There are 2 groups of distinct atoms

 Group   1 Type C   : 15s8p3d2f1g contracted to 7s4p3d2f1g pattern {8211111/5111/111/11/1}
 Group   2 Type H   : 7s3p2d1f contracted to 4s3p2d1f pattern {4111/111/11/1}

Atom   0C    basis set group =>   1
Atom   1C    basis set group =>   1
Atom   2C    basis set group =>   1
Atom   3C    basis set group =>   1
Atom   4C    basis set group =>   1
Atom   5C    basis set group =>   1
Atom   6C    basis set group =>   1
Atom   7C    basis set group =>   1
Atom   8C    basis set group =>   1
Atom   9C    basis set group =>   1
Atom  10C    basis set group =>   1
Atom  11C    basis set group =>   1
Atom  12C    basis set group =>   1
Atom  13C    basis set group =>   1
Atom  14C    basis set group =>   1
Atom  15C    basis set group =>   1
Atom  16C    basis set group =>   1
Atom  17C    basis set group =>   1
Atom  18C    basis set group =>   1
Atom  19C    basis set group =>   1
Atom  20C    basis set group =>   1
Atom  21C    basis set group =>   1
Atom  22C    basis set group =>   1
Atom  23C    basis set group =>   1
Atom  24C    basis set group =>   1
Atom  25C    basis set group =>   1
Atom  26C    basis set group =>   1
Atom  27C    basis set group =>   1
Atom  28C    basis set group =>   1
Atom  29C    basis set group =>   1
Atom  30C    basis set group =>   1
Atom  31C    basis set group =>   1
Atom  32C    basis set group =>   1
Atom  33C    basis set group =>   1
Atom  34C    basis set group =>   1
Atom  35C    basis set group =>   1
Atom  36C    basis set group =>   1
Atom  37C    basis set group =>   1
Atom  38C    basis set group =>   1
Atom  39C    basis set group =>   1
Atom  40C    basis set group =>   1
Atom  41C    basis set group =>   1
Atom  42H    basis set group =>   2
Atom  43H    basis set group =>   2
Atom  44H    basis set group =>   2
Atom  45H    basis set group =>   2
Atom  46H    basis set group =>   2
Atom  47H    basis set group =>   2
Atom  48H    basis set group =>   2
Atom  49H    basis set group =>   2
Atom  50H    basis set group =>   2
Atom  51H    basis set group =>   2
Atom  52H    basis set group =>   2
Atom  53H    basis set group =>   2
Atom  54H    basis set group =>   2
Atom  55H    basis set group =>   2
Atom  56H    basis set group =>   2
Atom  57H    basis set group =>   2
Atom  58H    basis set group =>   2
Atom  59H    basis set group =>   2
Atom  60H    basis set group =>   2
Atom  61H    basis set group =>   2
Atom  62H    basis set group =>   2
Atom  63H    basis set group =>   2
---------------------------------
AUXILIARY/C BASIS SET INFORMATION
---------------------------------
There are 2 groups of distinct atoms

 Group   1 Type C   : 9s8p7d5f3g1h contracted to 9s8p7d5f3g1h pattern {111111111/11111111/1111111/11111/111/1}
 Group   2 Type H   : 6s4p3d2f1g contracted to 6s4p3d2f1g pattern {111111/1111/111/11/1}

Atom   0C    basis set group =>   1
Atom   1C    basis set group =>   1
Atom   2C    basis set group =>   1
Atom   3C    basis set group =>   1
Atom   4C    basis set group =>   1
Atom   5C    basis set group =>   1
Atom   6C    basis set group =>   1
Atom   7C    basis set group =>   1
Atom   8C    basis set group =>   1
Atom   9C    basis set group =>   1
Atom  10C    basis set group =>   1
Atom  11C    basis set group =>   1
Atom  12C    basis set group =>   1
Atom  13C    basis set group =>   1
Atom  14C    basis set group =>   1
Atom  15C    basis set group =>   1
Atom  16C    basis set group =>   1
Atom  17C    basis set group =>   1
Atom  18C    basis set group =>   1
Atom  19C    basis set group =>   1
Atom  20C    basis set group =>   1
Atom  21C    basis set group =>   1
Atom  22C    basis set group =>   1
Atom  23C    basis set group =>   1
Atom  24C    basis set group =>   1
Atom  25C    basis set group =>   1
Atom  26C    basis set group =>   1
Atom  27C    basis set group =>   1
Atom  28C    basis set group =>   1
Atom  29C    basis set group =>   1
Atom  30C    basis set group =>   1
Atom  31C    basis set group =>   1
Atom  32C    basis set group =>   1
Atom  33C    basis set group =>   1
Atom  34C    basis set group =>   1
Atom  35C    basis set group =>   1
Atom  36C    basis set group =>   1
Atom  37C    basis set group =>   1
Atom  38C    basis set group =>   1
Atom  39C    basis set group =>   1
Atom  40C    basis set group =>   1
Atom  41C    basis set group =>   1
Atom  42H    basis set group =>   2
Atom  43H    basis set group =>   2
Atom  44H    basis set group =>   2
Atom  45H    basis set group =>   2
Atom  46H    basis set group =>   2
Atom  47H    basis set group =>   2
Atom  48H    basis set group =>   2
Atom  49H    basis set group =>   2
Atom  50H    basis set group =>   2
Atom  51H    basis set group =>   2
Atom  52H    basis set group =>   2
Atom  53H    basis set group =>   2
Atom  54H    basis set group =>   2
Atom  55H    basis set group =>   2
Atom  56H    basis set group =>   2
Atom  57H    basis set group =>   2
Atom  58H    basis set group =>   2
Atom  59H    basis set group =>   2
Atom  60H    basis set group =>   2
Atom  61H    basis set group =>   2
Atom  62H    basis set group =>   2
Atom  63H    basis set group =>   2
----------------------------------
AUXILIARY/JK BASIS SET INFORMATION
----------------------------------
There are 2 groups of distinct atoms

 Group   1 Type C   : 9s8p7d5f3g1h contracted to 9s8p7d5f3g1h pattern {111111111/11111111/1111111/11111/111/1}
 Group   2 Type H   : 6s4p3d2f1g contracted to 6s4p3d2f1g pattern {111111/1111/111/11/1}

Atom   0C    basis set group =>   1
Atom   1C    basis set group =>   1
Atom   2C    basis set group =>   1
Atom   3C    basis set group =>   1
Atom   4C    basis set group =>   1
Atom   5C    basis set group =>   1
Atom   6C    basis set group =>   1
Atom   7C    basis set group =>   1
Atom   8C    basis set group =>   1
Atom   9C    basis set group =>   1
Atom  10C    basis set group =>   1
Atom  11C    basis set group =>   1
Atom  12C    basis set group =>   1
Atom  13C    basis set group =>   1
Atom  14C    basis set group =>   1
Atom  15C    basis set group =>   1
Atom  16C    basis set group =>   1
Atom  17C    basis set group =>   1
Atom  18C    basis set group =>   1
Atom  19C    basis set group =>   1
Atom  20C    basis set group =>   1
Atom  21C    basis set group =>   1
Atom  22C    basis set group =>   1
Atom  23C    basis set group =>   1
Atom  24C    basis set group =>   1
Atom  25C    basis set group =>   1
Atom  26C    basis set group =>   1
Atom  27C    basis set group =>   1
Atom  28C    basis set group =>   1
Atom  29C    basis set group =>   1
Atom  30C    basis set group =>   1
Atom  31C    basis set group =>   1
Atom  32C    basis set group =>   1
Atom  33C    basis set group =>   1
Atom  34C    basis set group =>   1
Atom  35C    basis set group =>   1
Atom  36C    basis set group =>   1
Atom  37C    basis set group =>   1
Atom  38C    basis set group =>   1
Atom  39C    basis set group =>   1
Atom  40C    basis set group =>   1
Atom  41C    basis set group =>   1
Atom  42H    basis set group =>   2
Atom  43H    basis set group =>   2
Atom  44H    basis set group =>   2
Atom  45H    basis set group =>   2
Atom  46H    basis set group =>   2
Atom  47H    basis set group =>   2
Atom  48H    basis set group =>   2
Atom  49H    basis set group =>   2
Atom  50H    basis set group =>   2
Atom  51H    basis set group =>   2
Atom  52H    basis set group =>   2
Atom  53H    basis set group =>   2
Atom  54H    basis set group =>   2
Atom  55H    basis set group =>   2
Atom  56H    basis set group =>   2
Atom  57H    basis set group =>   2
Atom  58H    basis set group =>   2
Atom  59H    basis set group =>   2
Atom  60H    basis set group =>   2
Atom  61H    basis set group =>   2
Atom  62H    basis set group =>   2
Atom  63H    basis set group =>   2


           ************************************************************
           *        Program running with 104 parallel MPI-processes   *
           *              working on a common directory               *
           ************************************************************
------------------------------------------------------------------------------
                             ORCA STARTUP CALCULATIONS
                           -- RI-GTO INTEGRALS CHOSEN --
------------------------------------------------------------------------------
------------------------------------------------------------------------------
                   ___                                                        
                  /   \      - P O W E R E D   B Y -                         
                 /     \                                                     
                 |  |  |   _    _      __       _____    __    __             
                 |  |  |  | |  | |    /  \     |  _  \  |  |  /  |          
                  \  \/   | |  | |   /    \    | | | |  |  | /  /          
                 / \  \   | |__| |  /  /\  \   | |_| |  |  |/  /          
                |  |  |   |  __  | /  /__\  \  |    /   |      \           
                |  |  |   | |  | | |   __   |  |    \   |  |\   \          
                \     /   | |  | | |  |  |  |  | |\  \  |  | \   \       
                 \___/    |_|  |_| |__|  |__|  |_| \__\ |__|  \__/        
                                                                              
                      - O R C A' S   B I G   F R I E N D -                    
                                      &                                       
                       - I N T E G R A L  F E E D E R -                       
                                                                              
 v1 FN, 2020, v2 2021, v3 2022-2024                                           
------------------------------------------------------------------------------


----------------------
SHARK INTEGRAL PACKAGE
----------------------

Number of atoms                             ...     64
Number of basis functions                   ...   3054
Number of shells                            ...    934
Maximum angular momentum                    ...      4
Integral batch strategy                     ... SHARK/LIBINT Hybrid
RI-J (if used) integral strategy            ... SPLIT-RIJ (Revised 2003 algorithm where possible)
Printlevel                                  ...      1
Contraction scheme used                     ... SEGMENTED contraction
Prescreening option                         ... SCHWARTZ
   Thresh                                   ... 1.000e-10
   Tcut                                     ... 1.000e-11
   Tpresel                                  ... 1.000e-11 
Coulomb Range Separation                    ... NOT USED
Exchange Range Separation                   ... NOT USED
Multipole approximations                    ... NOT USED
Finite Nucleus Model                        ... NOT USED
CABS basis                                  ... NOT available
Auxiliary Coulomb fitting basis             ... NOT available
Auxiliary J/K fitting basis                 ... AVAILABLE
   # of basis functions in Aux-JK           ...   7154
   # of shells in Aux-JK                    ...   1738
   Maximum angular momentum in Aux-JK       ...      5
Auxiliary Correlation fitting basis         ... AVAILABLE
   # of basis functions in Aux-C            ...   7154
   # of shells in Aux-C                     ...   1738
   Maximum angular momentum in Aux-C        ...      5
Auxiliary 'external' fitting basis          ... NOT available

Checking pre-screening integrals            ... done (  0.1 sec) Dimension = 934
Check shell pair data                       ... done (  0.1 sec)
Shell pair information
Shell pair cut-off parameter TPreSel        ...   1.0e-11
Total number of shell pairs                 ...    436645
Shell pairs after pre-screening             ...    224111
Total number of primitive shell pairs       ...   1133530
Primitive shell pairs kept                  ...    381878
          la=0 lb=0:  33699 shell pairs
          la=1 lb=0:  51805 shell pairs
          la=1 lb=1:  18497 shell pairs
          la=2 lb=0:  29931 shell pairs
          la=2 lb=1:  23480 shell pairs
          la=2 lb=2:   7093 shell pairs
          la=3 lb=0:  17560 shell pairs
          la=3 lb=1:  13876 shell pairs
          la=3 lb=2:   7955 shell pairs
          la=3 lb=3:   2333 shell pairs
          la=4 lb=0:   6889 shell pairs
          la=4 lb=1:   5592 shell pairs
          la=4 lb=2:   3192 shell pairs
          la=4 lb=3:   1821 shell pairs
          la=4 lb=4:    388 shell pairs

Calculating one electron integrals          ... done (  1.2 sec)
Calculating RI/JK V-Matrix + Cholesky decomp... done (  2.9 sec)
Calculating RI/C V-Matrix + Cholesky decomp.... done (  2.8 sec)
Calculating Nuclear repulsion               ... done (  0.0 sec) ENN=   4603.549838692709 Eh

Diagonalization of the overlap matrix:
Smallest eigenvalue                        ... 1.751e-07
Time for diagonalization                   ...    1.414 sec
Threshold for overlap eigenvalues          ... 1.000e-07
Number of eigenvalues below threshold      ... 0

IMPORTANT:
Smallest eigenvalue of S below the DiffSThresh (1.000e-06) while
Thresh>1e-12 and/or TCut>1e-13! In order to avoid SCF convergence issues,
Thresh will be set to at least 1e-12 and TCut to at least 1e-13.
This can be turned off by adding %SCF DiffSThresh -1 END to the input.

Time for construction of square roots      ...    1.090 sec
Total time needed                          ...    2.616 sec

-------------------
DFT GRID GENERATION
-------------------

General Integration Accuracy     IntAcc      ... 4.959
Radial Grid Type                 RadialGrid  ... OptM3 with GC (2021)
Angular Grid (max. ang.)         AngularGrid ... 6 (Lebedev-590)
Angular grid pruning method      GridPruning ... 4 (adaptive)
Weight generation scheme         WeightScheme... mBecke (2022)
Basis function cutoff            BFCut       ... 1.0000e-10
Integration weight cutoff        WCut        ... 1.0000e-14
Partially contracted basis set               ... off
Rotationally invariant grid construction     ... off
Angular grids for H and He will be reduced by one unit
Diffuse basis detected: some atoms will have their outermost
                        angular grid increased by 1.

Total number of grid points                  ...   786361
Total number of batches                      ...    12323
Average number of points per batch           ...       63
Average number of grid points per atom       ...    12287
Initializing property integral containers    ... done (  0.1 sec)

SHARK setup successfully completed in 123.3 seconds

Maximum memory used throughout the entire STARTUP-calculation: 440.9 MB


           ************************************************************
           *        Program running with 104 parallel MPI-processes   *
           *              working on a common directory               *
           ************************************************************
-------------------------------------------------------------------------------
                                 ORCA GUESS
                   Start orbitals & Density for SCF / CASSCF
-------------------------------------------------------------------------------

------------
SCF SETTINGS
------------
Hamiltonian:
 Density Functional     Method          .... DFT(GTOs)
 Exchange Functional    Exchange        .... PBE
   PBE kappa parameter   XKappa         ....  0.804000
   PBE mue parameter    XMuePBE         ....  0.219520
 Correlation Functional Correlation     .... P86
 LDA part of GGA corr.  LDAOpt          .... VWN-5
 Gradients option       PostSCFGGA      .... off
 Hybrid DFT is turned on
   Fraction HF Exchange ScalHFX         ....  0.690000
   Scaling of DF-GGA-X  ScalDFX         ....  0.310000
   Scaling of DF-GGA-C  ScalDFC         ....  0.403800
   Scaling of DF-LDA-C  ScalLDAC        ....  0.403800
   Perturbative correction              ....  1.000000
 RI-approximation to the Coulomb term is turned on
   Number of AuxJK basis functions      .... 7154
   RI-JK (J+K treated both via RI)      .... on


General Settings:
 Integral files         IntName         .... compas3x_hc_c42h22_0pent_4_qz_riri
 Hartree-Fock type      HFTyp           .... RHF
 Total Charge           Charge          ....    0
 Multiplicity           Mult            ....    1
 Number of Electrons    NEL             ....  274
 Basis Dimension        Dim             .... 3054
 Nuclear Repulsion      ENuc            ....   4603.5498386927 Eh

Convergence Acceleration:
 AO-DIIS                CNVDIIS         .... on
   Start iteration      DIISMaxIt       ....    12
   Startup error        DIISStart       ....  0.200000
   # of expansion vecs  DIISMaxEq       ....     5
   Bias factor          DIISBfac        ....   1.050
   Max. coefficient     DIISMaxC        ....  10.000
 MO-DIIS                CNVKDIIS        .... off
 Trust-Rad. Augm. Hess. CNVTRAH         .... auto
   Auto Start mean grad. ratio tolernc. ....  1.125000
   Auto Start start iteration           ....    50
   Auto Start num. interpolation iter.  ....    10
   Max. Number of Micro iterations      ....    24
   Max. Number of Macro iterations      .... Maxiter - #DIIS iter
   Number of Davidson start vectors     ....     2
   Converg. threshold    (grad. norm)   ....   5.000e-05
   Grad. Scal. Fac. for Micro threshold ....   0.100
   Minimum threshold for Micro iter.    ....   1.000e-02
   NR start threshold (gradient norm)   ....   1.000e-04
   Initial trust radius                 ....   0.400
   Minimum AH scaling param. (alpha)    ....   1.000
   Maximum AH scaling param. (alpha)    .... 1000.000
   Quad. conv. algorithm                .... NR
   White noise on init. David. guess    .... on
   Maximum white noise                  ....   0.010
   Pseudo random numbers                .... off
   Inactive MOs                         .... canonical
   Orbital update algorithm             .... Taylor
   Preconditioner                       .... Diag
   Full preconditioner red. dimension   ....   250
 SOSCF                  CNVSOSCF        .... on
   Start iteration      SOSCFMaxIt      ....   150
   Startup grad/error   SOSCFStart      ....  0.003300
   Hessian update       SOSCFHessUp     .... L-BFGS
 Level Shifting         CNVShift        .... on
   Level shift para.    LevelShift      ....    0.2500
   Turn off err/grad.   ShiftErr        ....    0.0010
 Zerner damping         CNVZerner       .... off
 Static damping         CNVDamp         .... on
   Fraction old density DampFac         ....    0.7000
   Max. Damping (<1)    DampMax         ....    0.9800
   Min. Damping (>=0)   DampMin         ....    0.0000
   Turn off err/grad.   DampErr         ....    0.1000

SCF Procedure:
 Maximum # iterations   MaxIter         ....   125
 SCF integral mode      SCFMode         .... Direct
   Integral package                     .... SHARK and LIBINT hybrid scheme
 Reset frequency        DirectResetFreq ....    20
 Integral Threshold     Thresh          ....  1.000e-12 Eh
 Primitive CutOff       TCut            ....  1.000e-13 Eh

Convergence Tolerance:
 Convergence Check Mode ConvCheckMode   .... Total+1el-Energy
 Convergence forced     ConvForced      .... 0
 Energy Change          TolE            ....  1.000e-06 Eh
 1-El. energy change                    ....  1.000e-03 Eh
 Orbital Gradient       TolG            ....  5.000e-05
 Orbital Rotation angle TolX            ....  5.000e-05
 DIIS Error             TolErr          ....  1.000e-06

------------------------------
INITIAL GUESS: MODEL POTENTIAL
------------------------------
Loading Hartree-Fock densities                     ... done
Calculating cut-offs                               ... done
Initializing the effective Hamiltonian             ... done
Setting up the integral package (SHARK)            ... done
Starting the Coulomb interaction                   ... done (   1.0 sec)
Making the grid                                    ... done (   0.7 sec)
Mapping shells                                     ... done
Starting the XC term evaluation                    ... done (   0.3 sec)
  promolecular density results
     # of electrons  =    273.982060240
     EX              =   -221.653993864
     EC              =      0.312116796
     EX+EC           =   -221.341877069
Transforming the Hamiltonian                       ... done (   0.7 sec)
Diagonalizing the Hamiltonian                      ... done (   0.9 sec)
Back transforming the eigenvectors                 ... done (   0.5 sec)
Now organizing SCF variables                       ... done
                      ------------------
                      INITIAL GUESS DONE (   5.3 sec)
                      ------------------
             **** ENERGY FILE WAS UPDATED (compas3x_hc_c42h22_0pent_4_qz_riri.en.tmp) ****
Finished Guess after  24.9 sec
Maximum memory used throughout the entire GUESS-calculation: 510.3 MB


           ************************************************************
           *        Program running with 104 parallel MPI-processes   *
           *              working on a common directory               *
           ************************************************************

-------------------------------------------------------------------------------------------
                                      ORCA LEAN-SCF
                              memory conserving SCF solver
-------------------------------------------------------------------------------------------


Warning (ORCA_SCF): Not enough memory available!
                    Memory available for SCF calculation:       1024.0 MB
                    Memory needed (estimated)           :       1631.1 MB


----------------------------------------D-I-I-S--------------------------------------------
Iteration    Energy (Eh)           Delta-E    RMSDP     MaxDP     DIISErr   Damp  Time(sec)
-------------------------------------------------------------------------------------------
    1    -1606.8708573252461065     0.00e+00  3.44e-04  4.66e-02  1.51e-01  0.700  66.6
    2    -1606.5846603207091903     2.86e-01  4.71e-04  1.30e-01  1.35e-01  0.700  71.0
                               ***Turning on AO-DIIS***
    3    -1606.7684258178414893    -1.84e-01  2.90e-04  7.11e-02  8.05e-02  0.700  67.5
    4    -1607.1264308786985566    -3.58e-01  1.00e-03  3.25e-01  4.08e-02  0.000 117.2
    5    -1607.7012792918339983    -5.75e-01  1.78e-04  5.74e-02  3.46e-02  0.000  67.1
    6    -1607.7249024895936600    -2.36e-02  8.96e-05  2.29e-02  1.60e-02  0.000  68.2
    7    -1607.7309068652866699    -6.00e-03  6.26e-05  1.61e-02  5.50e-03  0.000  69.9
                              *** Initializing SOSCF ***
---------------------------------------S-O-S-C-F--------------------------------------
Iteration    Energy (Eh)           Delta-E    RMSDP     MaxDP     MaxGrad    Time(sec)
--------------------------------------------------------------------------------------
    8    -1607.7316456513872254    -7.39e-04  4.03e-05  1.11e-02  1.31e-03    72.3
    9    -1607.7317107393946571    -6.51e-05  2.13e-05  5.65e-03  1.91e-04    65.2
   10    -1607.7317190061930887    -8.27e-06  2.41e-05  7.36e-03  1.78e-04   154.2
   11    -1607.7317214437725852    -2.44e-06  8.92e-06  2.58e-03  7.89e-05    63.7
   12    -1607.7317224221833385    -9.78e-07  3.58e-06  1.02e-03  1.74e-05   124.4
                 **** Energy Check signals convergence ****

               *****************************************************
               *                     SUCCESS                       *
               *           SCF CONVERGED AFTER  12 CYCLES          *
               *****************************************************

             **** ENERGY FILE WAS UPDATED (compas3x_hc_c42h22_0pent_4_qz_riri.en.tmp) ****

----------------
TOTAL SCF ENERGY
----------------

Total Energy       :      -1607.73172242218334 Eh          -43748.60430 eV

Components:
Nuclear Repulsion  :       4603.54983869270927 Eh          125268.95966 eV
Electronic Energy  :      -6211.28156111489261 Eh         -169017.56396 eV
One Electron Energy:     -11341.76646362020256 Eh         -308625.15567 eV
Two Electron Energy:       5130.48490250530995 Eh          139607.59171 eV

Virial components:
Potential Energy   :      -3212.11193836334678 Eh          -87406.00948 eV
Kinetic Energy     :       1604.38021594116321 Eh           43657.40518 eV
Virial Ratio       :          2.00208897270592

DFT components:
N(Alpha)           :      136.999920395858 electrons
N(Beta)            :      136.999920395858 electrons
N(Total)           :      273.999840791716 electrons
E(X)               :      -69.862034431996 Eh       
E(C)               :       -4.106926897813 Eh       
E(XC)              :      -73.968961329809 Eh       

---------------
SCF CONVERGENCE
---------------

  Last Energy change         ...    9.7841e-07  Tolerance :   1.0000e-06
  Last MAX-Density change    ...    1.0172e-03  Tolerance :   1.0000e-05
  Last RMS-Density change    ...    3.5779e-06  Tolerance :   1.0000e-06
  Last DIIS Error            ...    1.3066e-03  Tolerance :   1.0000e-06
  Last Orbital Gradient      ...    1.7350e-05  Tolerance :   5.0000e-05
  Last Orbital Rotation      ...    5.8880e-05  Tolerance :   5.0000e-05


----------------
ORBITAL ENERGIES
----------------

  NO   OCC          E(Eh)            E(eV) 
   0   2.0000     -10.838054      -294.9184 
   1   2.0000     -10.837604      -294.9062 
   2   2.0000     -10.836990      -294.8895 
   3   2.0000     -10.836576      -294.8782 
   4   2.0000     -10.836183      -294.8675 
   5   2.0000     -10.835869      -294.8590 
   6   2.0000     -10.833964      -294.8072 
   7   2.0000     -10.833294      -294.7889 
   8   2.0000     -10.833107      -294.7838 
   9   2.0000     -10.833050      -294.7823 
  10   2.0000     -10.832013      -294.7541 
  11   2.0000     -10.831258      -294.7335 
  12   2.0000     -10.830926      -294.7245 
  13   2.0000     -10.830860      -294.7227 
  14   2.0000     -10.829941      -294.6977 
  15   2.0000     -10.828422      -294.6563 
  16   2.0000     -10.827756      -294.6382 
  17   2.0000     -10.827077      -294.6197 
  18   2.0000     -10.826096      -294.5931 
  19   2.0000     -10.825983      -294.5900 
  20   2.0000     -10.824943      -294.5617 
  21   2.0000     -10.823690      -294.5276 
  22   2.0000     -10.823221      -294.5148 
  23   2.0000     -10.822925      -294.5067 
  24   2.0000     -10.822245      -294.4883 
  25   2.0000     -10.821976      -294.4810 
  26   2.0000     -10.821937      -294.4799 
  27   2.0000     -10.821928      -294.4796 
  28   2.0000     -10.821467      -294.4671 
  29   2.0000     -10.821368      -294.4644 
  30   2.0000     -10.821363      -294.4643 
  31   2.0000     -10.820476      -294.4401 
  32   2.0000     -10.820432      -294.4389 
  33   2.0000     -10.820345      -294.4366 
  34   2.0000     -10.820298      -294.4353 
  35   2.0000     -10.819254      -294.4069 
  36   2.0000     -10.819243      -294.4066 
  37   2.0000     -10.818434      -294.3845 
  38   2.0000     -10.816894      -294.3427 
  39   2.0000     -10.816670      -294.3366 
  40   2.0000     -10.815444      -294.3032 
  41   2.0000     -10.814445      -294.2760 
  42   2.0000      -1.105550       -30.0836 
  43   2.0000      -1.091546       -29.7025 
  44   2.0000      -1.074340       -29.2343 
  45   2.0000      -1.055511       -28.7219 
  46   2.0000      -1.043239       -28.3880 
  47   2.0000      -1.039041       -28.2737 
  48   2.0000      -1.014394       -27.6031 
  49   2.0000      -1.008405       -27.4401 
  50   2.0000      -0.983276       -26.7563 
  51   2.0000      -0.976792       -26.5799 
  52   2.0000      -0.968792       -26.3622 
  53   2.0000      -0.950738       -25.8709 
  54   2.0000      -0.945273       -25.7222 
  55   2.0000      -0.932102       -25.3638 
  56   2.0000      -0.916595       -24.9418 
  57   2.0000      -0.910716       -24.7818 
  58   2.0000      -0.903698       -24.5909 
  59   2.0000      -0.893023       -24.3004 
  60   2.0000      -0.889017       -24.1914 
  61   2.0000      -0.878241       -23.8982 
  62   2.0000      -0.854570       -23.2540 
  63   2.0000      -0.808586       -22.0027 
  64   2.0000      -0.794481       -21.6189 
  65   2.0000      -0.782723       -21.2990 
  66   2.0000      -0.777378       -21.1535 
  67   2.0000      -0.773711       -21.0538 
  68   2.0000      -0.772590       -21.0233 
  69   2.0000      -0.761783       -20.7292 
  70   2.0000      -0.755990       -20.5715 
  71   2.0000      -0.734010       -19.9734 
  72   2.0000      -0.728108       -19.8128 
  73   2.0000      -0.699890       -19.0450 
  74   2.0000      -0.691930       -18.8284 
  75   2.0000      -0.679254       -18.4834 
  76   2.0000      -0.666487       -18.1360 
  77   2.0000      -0.659007       -17.9325 
  78   2.0000      -0.653141       -17.7729 
  79   2.0000      -0.644377       -17.5344 
  80   2.0000      -0.629480       -17.1290 
  81   2.0000      -0.625941       -17.0327 
  82   2.0000      -0.616487       -16.7755 
  83   2.0000      -0.605941       -16.4885 
  84   2.0000      -0.601719       -16.3736 
  85   2.0000      -0.594323       -16.1724 
  86   2.0000      -0.588203       -16.0058 
  87   2.0000      -0.578830       -15.7508 
  88   2.0000      -0.573578       -15.6079 
  89   2.0000      -0.567314       -15.4374 
  90   2.0000      -0.558160       -15.1883 
  91   2.0000      -0.550227       -14.9724 
  92   2.0000      -0.544315       -14.8116 
  93   2.0000      -0.542790       -14.7701 
  94   2.0000      -0.537182       -14.6175 
  95   2.0000      -0.535087       -14.5604 
  96   2.0000      -0.532149       -14.4805 
  97   2.0000      -0.529269       -14.4021 
  98   2.0000      -0.525935       -14.3114 
  99   2.0000      -0.522498       -14.2179 
 100   2.0000      -0.517904       -14.0929 
 101   2.0000      -0.514678       -14.0051 
 102   2.0000      -0.508846       -13.8464 
 103   2.0000      -0.503253       -13.6942 
 104   2.0000      -0.500187       -13.6108 
 105   2.0000      -0.493785       -13.4366 
 106   2.0000      -0.487500       -13.2656 
 107   2.0000      -0.484444       -13.1824 
 108   2.0000      -0.474338       -12.9074 
 109   2.0000      -0.471019       -12.8171 
 110   2.0000      -0.467154       -12.7119 
 111   2.0000      -0.463624       -12.6159 
 112   2.0000      -0.461699       -12.5635 
 113   2.0000      -0.458088       -12.4652 
 114   2.0000      -0.450914       -12.2700 
 115   2.0000      -0.448598       -12.2070 
 116   2.0000      -0.443231       -12.0609 
 117   2.0000      -0.437069       -11.8932 
 118   2.0000      -0.425137       -11.5686 
 119   2.0000      -0.418965       -11.4006 
 120   2.0000      -0.417350       -11.3567 
 121   2.0000      -0.410091       -11.1591 
 122   2.0000      -0.405175       -11.0254 
 123   2.0000      -0.396550       -10.7907 
 124   2.0000      -0.375703       -10.2234 
 125   2.0000      -0.372432       -10.1344 
 126   2.0000      -0.363755        -9.8983 
 127   2.0000      -0.340685        -9.2705 
 128   2.0000      -0.333130        -9.0649 
 129   2.0000      -0.324343        -8.8258 
 130   2.0000      -0.300070        -8.1653 
 131   2.0000      -0.296823        -8.0770 
 132   2.0000      -0.290249        -7.8981 
 133   2.0000      -0.271680        -7.3928 
 134   2.0000      -0.266075        -7.2403 
 135   2.0000      -0.237931        -6.4744 
 136   2.0000      -0.212899        -5.7933 
 137   0.0000      -0.026723        -0.7272 
 138   0.0000       0.004450         0.1211 
 139   0.0000       0.019051         0.5184 
 140   0.0000       0.030088         0.8187 
 141   0.0000       0.042095         1.1455 
 142   0.0000       0.052084         1.4173 
 143   0.0000       0.059499         1.6190 
 144   0.0000       0.067141         1.8270 
 145   0.0000       0.073288         1.9943 
 146   0.0000       0.074434         2.0255 
 147   0.0000       0.075638         2.0582 
*Only the first 10 virtual orbitals were printed.
-------
TIMINGS
-------

Total SCF time: 0 days 0 hours 17 min 10 sec 

Total time                  ....    1030.320 sec
Sum of individual times     ....    1030.067 sec  (100.0%)

SCF preparation             ....      18.150 sec  (  1.8%)
Fock matrix formation       ....     939.276 sec  ( 91.2%)
  Startup                   ....       5.571 sec  (  0.6% of F)
  RI-JK                     ....     686.561 sec  ( 73.1% of F)
  XC integration            ....     232.725 sec  ( 24.8% of F)
    XC Preparation          ....       0.000 sec  (  0.0% of XC)
    Basis function eval.    ....       1.950 sec  (  0.8% of XC)
    Density eval.           ....       7.100 sec  (  3.1% of XC)
    XC-Functional eval.     ....       0.051 sec  (  0.0% of XC)
    XC-Potential eval.      ....       8.725 sec  (  3.7% of XC)
Diagonalization             ....       0.000 sec  (  0.0%)
Density matrix formation    ....      11.200 sec  (  1.1%)
Total Energy calculation    ....       4.718 sec  (  0.5%)
Population analysis         ....       0.000 sec  (  0.0%)
Orbital Transformation      ....       6.849 sec  (  0.7%)
Orbital Orthonormalization  ....       0.000 sec  (  0.0%)
DIIS solution               ....      38.027 sec  (  3.7%)
SOSCF solution              ....      11.501 sec  (  1.1%)
Finished LeanSCF after 1031.6 sec

Maximum memory used throughout the entire LEANSCF-calculation: 1741.6 MB


           ************************************************************
           *        Program running with 104 parallel MPI-processes   *
           *              working on a common directory               *
           ************************************************************

------------------------------------------------------------------------------
                                ORCA  MP2 
------------------------------------------------------------------------------


-------------
RI-MP2 ENERGY
-------------
Dimension of the orbital basis            ... 3054
Dimension of the AuxC basis               ... 7154
Memory devoted to MP2                     ... 4096 MB   
Data format for matrix containers         ... DOUBLE
Compression type for matrix containers    ... UNCOMPRESSED
Scaling for aa/bb pairs                   ...   5.710e-02
Scaling for ab pairs                      ...   5.979e-01
Overall scaling of the MP2 energy         ...   1.000e+00

-----------------------
SHARK RI TRANSFORMATION
-----------------------

Number of basis functions                ...   3054
Number of aux functions                  ...   7154
Number of operators                      ...      1
Generation of IJK                        ... NO
Generation of IAK                        ... YES
Generation of ABK                        ... NO
Orbital Range Operator  0:    0- 136 to  137-3053

Aux basis identifier                     ...   AUXC
Contraction scheme used                  ... SEGMENTED
Do orthogonalization                     ... YES
All operator combinations                ... NO
Transpose (ia|K)                         ... NO
Integral generator used                  ... LIBINT
Starting integral generation + trafo... 
Half trafo (segmented) done. Total time = 24.6 sec. integrals=  5.1 sec trafo= 18.4 sec
Integral generation and half transformation done ( 24.6 sec)

Reading or making V^(-1/2)          ... done (  0.9 sec)
Sorting IAK integrals               ... done ( 31.6 sec)

SHARK RI integral transformation done. Total time = 57.4 sec.

Opening buffers                              ... done

Starting loop over batches of integrals:

Operator 0  - window                       ... (  0-136)x(137-3053)
Operator 0  - Memory available             ...  4096 MB
Operator 0  - Memory needed per MO         ... 159.2 MB
Operator 0  - Number of orbitals per batch ... 2
Operator 0  - Number of batches            ... 1

OPERATOR  0   PASS   0:  MOs     0 ...    1 +    2 ...    3 +    4 ...    5 +    6 ...    7
                            +    8 ...    9 +   10 ...   11 +   12 ...   13 +   14 ...   15
                            +   16 ...   17 +   18 ...   19 +   20 ...   21 +   22 ...   23
                            +   24 ...   25 +   26 ...   27 +   28 ...   29 +   30 ...   31
                            +   32 ...   33 +   34 ...   35 +   36 ...   37 +   38 ...   39
                            +   40 ...   41 +   42 ...   43 +   44 ...   45 +   46 ...   47
                            +   48 ...   49 +   50 ...   51 +   52 ...   53 +   54 ...   55
                            +   56 ...   57 +   58 ...   59 +   60 ...   61 +   62 ...   63
                            +   64 ...   65 +   66 ...   67 +   68 ...   69 +   70 ...   71
                            +   72 ...   73 +   74 ...   75 +   76 ...   77 +   78 ...   79
                            +   80 ...   81 +   82 ...   83 +   84 ...   85 +   86 ...   87
                            +   88 ...   89 +   90 ...   91 +   92 ...   93 +   94 ...   95
                            +   96 ...   97 +   98 ...   99 +  100 ...  101 +  102 ...  103
                            +  104 ...  105 +  106 ...  107 +  108 ...  109 +  110 ...  111
                            +  112 ...  113 +  114 ...  115 +  116 ...  117 +  118 ...  119
                            +  120 ...  121 +  122 ...  123 +  124 ...  125 +  126 ...  127
                            +  128 ...  129 +  130 ...  131 +  132 ...  133 +  134 ...  135
                            +  136 ...  136
  Reading integrals       ... ok
Time spent in pair loops =   574.753 sec

-----------------------------------------------
 RI-MP2 CORRELATION ENERGY:     -4.144411456 Eh
-----------------------------------------------


-------
TIMINGS
-------

Total time                :  640.601 sec
Integral trafo            :   58.099 sec (  9.1%)
I/O of integrals          :    0.378 sec (  0.1%)
K(i,j) operators          :    6.671 sec (  1.0%)
T(i,j) pair energies      :    0.623 sec (  0.1%)
V**(-1/2)                 :    7.746 sec (  1.2%)


---------------------------------------
MP2 TOTAL ENERGY:    -1611.876133879 Eh
---------------------------------------

Maximum memory used throughout the entire MP2-calculation: 1263.9 MB


-------------------------------------------------------------------------------
                          DFT DISPERSION CORRECTION                            
                                                                               
                                DFTD4 V3.4.0                                   
-------------------------------------------------------------------------------
The REV-DSD-PBEP86-2021 functional is recognized
A user input s6-coefficient scaling factor has been recognized
A user input a1-coefficient scaling factor has been recognized
A user input s8-coefficient scaling factor has been recognized
A user input a2-coefficient scaling factor has been recognized
A user input s9-coefficient scaling factor has been recognized
Active option DFTDOPT                   ...         5   

-------------------------   ----------------
Dispersion correction           -0.074022216
-------------------------   ----------------


-------------------------   --------------------
FINAL SINGLE POINT ENERGY     -1611.950156094529
-------------------------   --------------------



           ************************************************************
           *        Program running with 104 parallel MPI-processes   *
           *              working on a common directory               *
           ************************************************************

------------------------------------------------------------------------------
                              ORCA PROPERTY CALCULATIONS
------------------------------------------------------------------------------

GBWName                                 ... compas3x_hc_c42h22_0pent_4_qz_riri.gbw
Number of atoms                         ...     64
Number of basis functions               ...   3054
Max core memory                         ...   1024 MB

Electric properties:
Dipole moment                           ... YES
Quadrupole moment                       ...  NO
Static polarizability (Dipole/Dipole)   ...  NO
Static polarizability (Dipole/Quad.)    ...  NO
Static polarizability (Quad./Quad.)     ...  NO
Static polarizability (Velocity)        ...  NO

Atomic electric properties:
Dipole moment                           ...  NO
Quadrupole moment                       ...  NO
Static polarizability                   ...  NO

Choice of electric origin               ... Center of mass
Position of electric origin             ...     0.120382     0.150681    -0.024474

General magnetic properties:
Magnetizability                         ...  NO

EPR properties:
g-Tensor (aka g-matrix)                 ...  NO
Zero-Field splitting spin-orbit         ...  NO
Zero-field splitting spin-spin          ...  NO
Hyperfine couplings                     ...  NO (   0 nuclei)
Quadrupole couplings                    ...  NO (   0 nuclei)
Contact density                         ...  NO (   0 nuclei)

NMR properties:
Chemical shifts                         ...  NO (   0 nuclei)
Spin-rotation constants                 ...  NO (   0 nuclei)
Spin-spin couplings                     ...  NO (   0 nuclei,    0 pairs)

Choice of magnetic origin               ... GIAO
Position of magnetic origin             ...     0.000000     0.000000     0.000000

Properties with geometric perturbations:
SCF Hessian                             ...  NO
IR spectrum                             ...  NO
VCD spectrum                            ...  NO
X-ray spectroscopy properties:
SCF XES/XAS/RIXS spectra                ...  NO


-------------
DIPOLE MOMENT
-------------

Method             : SCF
Type of density    : Electron Density
Multiplicity       :   1
Irrep              :   0
Energy             : -1607.7317224221833385 Eh
Relativity type    : 
Basis              : AO
                                X                 Y                 Z
Electronic contribution:      4.020326351       5.110985786      -0.842092007
Nuclear contribution   :     -4.175383877      -5.223216036       0.843750860
                        -----------------------------------------
Total Dipole Moment    :     -0.155057526      -0.112230249       0.001658853
                        -----------------------------------------
Magnitude (a.u.)       :      0.191418957
Magnitude (Debye)      :      0.486548322



--------------------
Rotational spectrum 
--------------------
 
Rotational constants in cm-1:             0.004635             0.003043             0.002017 
Rotational constants in MHz :           138.954290            91.229656            60.475708 

Dipole components along the rotational axes: 
x,y,z [a.u.] :    -0.039537    -0.184121    -0.034315 
x,y,z [Debye]:    -0.100495    -0.467998    -0.087222 

 

Dipole moment calculation done in   0.8 sec 

Maximum memory used throughout the entire PROP-calculation: 573.0 MB

--------------------------------
SUGGESTED CITATIONS FOR THIS RUN
--------------------------------

Below you find a list of papers that are relevant to this ORCA run
We neither can nor want to force you to cite these papers, but we appreciate if you do
You receive ORCA, which is the product of decades of hard work by many enthusiastic individuals, for free
The only thing we kindly ask in return is that you cite our papers,
We deeply appreciate it, if you show your appreciation for ORCA by not just citing the generic ORCA reference.

Please note that relegating all ORCA citations to the supporting information does *not* help us.
SI sections are not indexed - citations you put there will not count into any citation statistics
But we need these citations in order to attract the funding resources that allow us to do what we are doing

Therefore, if you are a happy ORCA user, please consider citing a few of the papers listed below in the main body of your paper

In addition to the list printed below, the program has created the file compas3x_hc_c42h22_0pent_4_qz_riri.bibtex that contains the list in bibtex format
You can import this file easily into all common literature databanks and citation aid programs


List of essential papers. We consider these as the minimum necessary citations

  1. Neese,F.
     Software update: the ORCA program system, version 5.0
     WIRES Comput. Molec. Sci., 2022 12(1)e1606
     doi.org/10.1002/wcms.1606

List of papers to cite with high priority. The work reported in these papers was absolutely
necessary for this run to complete.
Our perspective: the developers of density functionals and basis sets usually get cited in chemistry papers
Good! But without the algorithms to do something with them, the functionals or basis sets would not do anything.
Hence, in our opinion, the algorithm design and method developments papers are equally worthy of getting cited

  1. Neese,F.
     An improvement of the resolution of the identity approximation for the formation of the Coulomb matrix
     J. Comp. Chem., 2003 24(14)1740-1747
     doi.org/10.1002/jcc.10318
  2. Kossmann,S.; Neese,F.
     Comparison of two efficient approximate Hartee-Fock approaches
     Chem. Phys. Lett., 2009 481 240-243
     doi.org/10.1016/j.cplett.2009.09.073
  3. Neese,F.
     The SHARK Integral Generation and Digestion System
     J. Comp. Chem., 2022  1-16
     doi.org/10.1002/jcc.26942
  4. Caldeweyher,E.; Bannwarth,C.; Grimme,S.
     Extension of the D3 dispersion coefficient model
     J. Chem. Phys., 2017 147 034112
     doi.org/10.1063/1.4993215
  5. Caldeweyher,E.; Ehlert,S.; Hansen,A.; Neugebauer,H.; Spicher,S.; Bannwarth,C.; Grimme,S.
     A generally applicable atomic-charge dependent London dispersion correction
     J. Chem. Phys., 2019 150 154122
     doi.org/10.1063/1.5090222
  6. Caldeweyher,E.; Mewes,J.; Ehlert,S.; Grimme,S.
     Extension and evaluation of the D4 London-dispersion model for periodic systems
     Phys. Chem. Chem. Phys., 2020 22(16)8499-8512
     doi.org/10.1039/D0CP00502A
  7. Wittmann,L.; Gordiy,I.; Friede,M.; Helmich-Paris,B.; Grimme,S.; Hansen,A.; Bursch,M.
     Extension of the D3 and D4 London Dispersion Corrections to the full Actinides Series
     Phys. Chem. Chem. Phys., 2024 26(32)21379-21394
     doi.org/https://doi.org/10.1039/D4CP01514B 

List of suggested additional citations. These are papers that are important in the 'surrounding' of 
of this run, or papers that preceded the highly important papers. If you like your results we are grateful for a citation.

  1. Neese,F.
     The ORCA program system
     WIRES Comput. Molec. Sci., 2012 2(1)73-78
     doi.org/10.1002/wcms.81
  2. Neese,F.
     Software update: the ORCA program system, version 4.0
     WIRES Comput. Molec. Sci., 2018 8(1)1-6
     doi.org/10.1002/wcms.1327
  3. Neese,F.; Wennmohs,F.; Becker,U.; Riplinger,C.
     The ORCA quantum chemistry program package
     J. Chem. Phys., 2020 152 Art. No. L224108
     doi.org/10.1063/5.0004608

List of optional additional citations

  1. Neese,F.
     Approximate second-order SCF convergence for spin unrestricted wavefunctions
     Chem. Phys. Lett., 2000 325(1-3)93-98
     doi.org/10.1016/s0009-2614(00)00662-x

Timings for individual modules:

Sum of individual times          ...     1882.842 sec (=  31.381 min)
Startup calculation              ...      141.109 sec (=   2.352 min)   7.5 %
SCF iterations                   ...     1059.278 sec (=  17.655 min)  56.3 %
Property calculations            ...       18.934 sec (=   0.316 min)   1.0 %
MP2 module                       ...      663.520 sec (=  11.059 min)  35.2 %
                             ****ORCA TERMINATED NORMALLY****
TOTAL RUN TIME: 0 days 0 hours 31 minutes 53 seconds 664 msec
