
                                 *****************
                                 * O   R   C   A *
                                 *****************

                                            #,                                       
                                            ###                                      
                                            ####                                     
                                            #####                                    
                                            ######                                   
                                           ########,                                 
                                     ,,################,,,,,                         
                               ,,#################################,,                 
                          ,,##########################################,,             
                       ,#########################################, ''#####,          
                    ,#############################################,,   '####,        
                  ,##################################################,,,,####,       
                ,###########''''           ''''###############################       
              ,#####''   ,,,,##########,,,,          '''####'''          '####       
            ,##' ,,,,###########################,,,                        '##       
           ' ,,###''''                  '''############,,,                           
         ,,##''                                '''############,,,,        ,,,,,,###''
      ,#''                                            '''#######################'''  
     '                                                          ''''####''''         
             ,#######,   #######,   ,#######,      ##                                
            ,#'     '#,  ##    ##  ,#'     '#,    #''#        ,####,   ,####,        
            ##       ##  ##   ,#'  ##            #'  '#       #'       #'  '#        
            ##       ##  #######   ##           ,######,      #####,   #    #        
            '#,     ,#'  ##    ##  '#,     ,#' ,#      #,     #,   #   #,  ,#        
             '#######'   ##     ##  '#######'  #'      '#     '####' # '####'        



                #########################################################
                #                        -***-                          #
                #          Department of theory and spectroscopy        #
                #                                                       #
                #                      Frank Neese                      #
                #                                                       #
                #     Directorship, Architecture, Infrastructure        #
                #                    SHARK, DRIVERS                     #
                #        Core code/Algorithms in most modules           #
                #                                                       #
                #        Max Planck Institute fuer Kohlenforschung      #
                #                Kaiser Wilhelm Platz 1                 #
                #                 D-45470 Muelheim/Ruhr                 #
                #                      Germany                          #
                #                                                       #
                #                  All rights reserved                  #
                #                        -***-                          #
                #########################################################


                         Program Version 6.0.1  -  RELEASE   -


 With contributions from (in alphabetic order):
[Max-Planck-Institut fuer Kohlenforschung]                               
  Daniel Aravena         : Magnetic Suceptibility                        
  Michael Atanasov       : Ab Initio Ligand Field Theory (pilot matlab implementation)
  Alexander A. Auer      : GIAO ZORA, VPT2 properties, NMR spectrum      
  Ute Becker             : All parallelization in ORCA, NUMFREQ, NUMCALC 
  Giovanni Bistoni       : ED, misc. LED, open-shell LED, HFLD           
  Martin Brehm           : Molecular dynamics                            
  Dmytro Bykov           : pre 5.0 version of the SCF Hessian            
  Marcos Casanova-Páez   : Triplet and SCS-CIS(D). UHF-(DLPNO)-IP/EA/STEOM-CCSD. UHF-CVS-IP/STEOM-CCSD   
  Vijay G. Chilkuri      : MRCI spin determinant printing, contributions to CSF-ICE 
  Pauline Colinet        : FMM embedding                                 
  Dipayan Datta          : RHF DLPNO-CCSD density                        
  Achintya Kumar Dutta   : EOM-CC, STEOM-CC                              
  Nicolas Foglia         : Exact transition moments, OPA infrastructure, MCD improvements    
  Dmitry Ganyushin       : Spin-Orbit,Spin-Spin,Magnetic field MRCI      
  Miquel Garcia-Rates    : C-PCM and meta-GGA Hessian, CCSD/C-PCM, Gaussian charge scheme 
  Tiago L. C. Gouveia    : GS-ROHF, GS-ROCIS                             
  Yang Guo               : DLPNO-NEVPT2, F12-NEVPT2, CIM, IAO-localization        
  Andreas Hansen         : Spin unrestricted coupled pair/coupled cluster methods 
  Ingolf Harden          : AUTO-CI MPn and infrastructure                
  Benjamin Helmich-Paris : MC-RPA, TRAH-(SCF,CASSCF), AVAS, COSX integrals, SCF dyn. polar. 
  Lee Huntington         : MR-EOM, pCC                                   
  Robert Izsak           : Overlap fitted RIJCOSX, COSX-SCS-MP3, EOM     
  Riya Kayal             : Wick's Theorem for AUTO-CI, AUTO-CI UHF-CCSDT 
  Emily Kempfer          : AUTO-CI, RHF CISDT and CCSDT                  
  Christian Kollmar      : KDIIS, OOCD, Brueckner-CCSD(T), CCSD density, CASPT2, CASPT2-K, improved NEVPT2 
  Axel Koslowski         : Symmetry handling                             
  Simone Kossmann        : meta-GGA functionals, TD-DFT gradient, OOMP2, (MP2 Hessian; deprecated post 5.0) 
  Lucas Lang             : DCDCAS                                        
  Marvin Lechner         : AUTO-CI (C++ implementation), FIC-MRCC        
  Spencer Leger          : CASSCF response                               
  Dagmar Lenk            : GEPOL surface, SMD, ORCA-2-JSON               
  Dimitrios Liakos       : Extrapolation schemes; Compound Job, initial MDCI parallelization 
  Dimitrios Manganas     : Further ROCIS development; embedding schemes. LFT, Crystal Embedding 
  Dimitrios Pantazis     : SARC Basis sets                               
  Anastasios Papadopoulos: AUTO-CI, single reference methods and gradients 
  Taras Petrenko         : pre 6.0 DFT Hessian and TD-DFT gradient, (ASA, deprecated), ECA, 1-Electron XAS/XES, NRVS 
  Peter Pinski           : DLPNO-MP2, DLPNO-MP2 Gradient                 
  Christoph Reimann      : Effective Core Potentials                     
  Marius Retegan         : Local ZFS, SOC                                
  Christoph Riplinger    : Optimizer, TS searches, QM/MM, DLPNO-CCSD(T), (RO)-DLPNO pert. Triples 
  Michael Roemelt        : Original ROCIS implementation                 
  Masaaki Saitow         : Open-shell DLPNO-CCSD energy and density      
  Barbara Sandhoefer     : DKH picture change effects                    
  Kantharuban Sivalingam : CASSCF convergence/infrastructure, NEVPT2 and variants, FIC-MRCI 
  Bernardo de Souza      : ESD, SOC TD-DFT                               
  Georgi L. Stoychev     : AutoAux, RI-MP2 NMR, DLPNO-MP2 response, X2C  
  Van Anh Tran           : RI-MP2 g-tensors                              
  Willem Van den Heuvel  : Paramagnetic NMR                              
  Zikuan Wang            : NOTCH, Electric field optimization            
  Frank Wennmohs         : Technical directorship and infrastructure     
  Hang Xu                : AUTO-CI-Response properties                   
                                                                         
[FACCTs GmbH]                                                            
  Markus Bursch, Miquel Garcia-Rates, Christoph Riplinger, Bernardo de Souza, Georgi L. Stoychev 
                                                                 
  APM, Basis sets (HGBS, AHGBS, def-TZVP (Ac-Lr), def2-XVPD (La-Lu)), CI-OPT, improved COSX, DLPNO-Multilevel,           
  DOCKER, DRACO, updates on ESD, GOAT, IRC, LR-CPCM, MBIS, meta-GGA TD-DFT gradient, ML-optimized integration grids, 
  MM, NACMEs, nearIR, NEB, NEB-TS, NL-DFT gradient (VV10), 2- and 3-layer-ONIOM, interface openCOSMO-RS, QMMM,   
  Crystal-QMMM, SF, symmetry and pop. for TD-DFT, r2SCAN hybrids, SOLVATOR                                   
                                                                         
[Other institutions]                                                     
  V. Asgeirsson          : NEB                                           
  Christoph Bannwarth    : sTDA-DFT, sTD-DFT, PBEh-3c, B97-3c, D3        
  Sebastian Ehlert       : rSCAN, r2SCAN, r2SCAN-3c, D4, dhf basis sets  
  Marvin Friede          : D4 for Fr, Ra, Ac-Lr                          
  Lars Goerigk           : TD-DFT with DH, B97 family of functionals     
  Stefan Grimme          : VdW corrections, initial TS optimization, DFT functionals, gCP, sTDA/sTD-DF 
  Waldemar Hujo          : DFT-NL                                        
  H. Jonsson             : NEB                                           
  Holger Kruse           : gCP                                           
  Marcel Mueller         : wB97X-3c, vDZP basis set                      
  Hagen Neugebauer       : wr2SCAN                                       
  Tobias Risthaus        : range-separated hybrid DFT                    
  Lukas Wittmann         : regularized MP2, r2SCAN double-hybrids, wr2SCAN        
                                                                         
We gratefully acknowledge several colleagues who have allowed us to      
interface, adapt or use parts of their codes:                            
  Ed Valeev, F. Pavosevic, A. Kumar             : LibInt (2-el integral package), F12 methods 
  Garnet Chan, S. Sharma, J. Yang, R. Olivares  : DMRG                   
  Ulf Ekstrom                                   : XCFun DFT Library      
  Mihaly Kallay                                 : mrcc  (arbitrary order and MRCC methods)
  Frank Weinhold                                : gennbo (NPA and NBO analysis)           
  Simon Mueller                                 : openCOSMO-RS                            
  Christopher J. Cramer and Donald G. Truhlar   : smd solvation model                     
  S Lehtola, MJT Oliveira, MAL Marques          : LibXC Library                           
  Liviu Ungur et al                             : ANISO software                          


 Your calculation uses the libint2 library for the computation of 2-el integrals
 For citations please refer to: http://libint.valeyev.net

 Your ORCA version has been built with support for libXC version: 6.2.2
 For citations please refer to: https://libxc.gitlab.io

 This ORCA versions uses:
   CBLAS   interface :  Fast vector & matrix operations
   LAPACKE interface :  Fast linear algebra routines
   SCALAPACK package :  Parallel linear algebra routines
   Shared memory     :  Shared parallel matrices
   BLAS/LAPACK       :  OpenBLAS 0.3.27  USE64BITINT DYNAMIC_ARCH NO_AFFINITY SapphireRapids SINGLE_THREADED
        Core in use  :  SapphireRapids
   Copyright (c) 2011-2014, The OpenBLAS Project




***************************************
The coordinates will be read from file: /scratch/kx58/rs2200/dhdft/inputs/compas3x-xyzs/hc_c24h14_0pent_11.xyz
***************************************


Your calculation utilizes the atom-pairwise dispersion correction
based on EEQ partial charges (D4)


================================================================================

----- Orbital basis set information -----
Your calculation utilizes the basis: def2-TZVP
   F. Weigend and R. Ahlrichs, Phys. Chem. Chem. Phys. 7, 3297 (2005).

================================================================================
                                        WARNINGS
                       Please study these warnings very carefully!
================================================================================


WARNING: No MP2 level density has been requested!
         To calculate MP2 level properties use
         %mp2 Density relaxed end
         or
         %mp2 Density unrelaxed end
         Otherwise for double-hybrid DFT only the energy is correct!

================================================================================
                                       INPUT FILE
================================================================================
NAME = compas3x_hc_c24h14_0pent_11_tz_nori.inp
|  1> ! RKS revDSD-PBEP86-D4/2021 defgrid3  NORI NOPOP NoFrozencore NoUseSym
|  2> 
|  3> %basis
|  4> Basis "def2-TZVP"
|  5> 
|  6> 
|  7> end
|  8> 
|  9> %method
| 10> ScalHFX 0.69
| 11> ScalDFX 0.31
| 12> ScalDFC 0.4038
| 13> ScalLDAC 0.4038
| 14> 
| 15> D4S6 0.4612
| 16> D4S8 0.0
| 17> D4A1 0.44
| 18> D4A2 3.60
| 19> end
| 20> 
| 21> %mp2
| 22> PS 0.5979
| 23> PT 0.0571
| 24> end
| 25> 
| 26> %pal
| 27> nprocs 104
| 28> end
| 29> 
| 30> *XYZFILE 0 1 /scratch/kx58/rs2200/dhdft/inputs/compas3x-xyzs/hc_c24h14_0pent_11.xyz
| 31> 
| 32>                          ****END OF INPUT****
================================================================================

                       ****************************
                       * Single Point Calculation *
                       ****************************

---------------------------------
CARTESIAN COORDINATES (ANGSTROEM)
---------------------------------
  C      2.370224   -0.940113   -0.128430
  C      1.524078   -2.073359   -0.008790
  C      0.121266   -1.910259    0.106832
  C     -0.449101   -0.569175    0.041001
  C      0.448893    0.569010    0.042274
  C      1.791979    0.359351   -0.073793
  C      3.741266   -1.118326   -0.264474
  C      4.297491   -2.394450   -0.278018
  C      3.497992   -3.500794   -0.142682
  C      2.100730   -3.368671    0.000194
  C      1.262327   -4.488752    0.154559
  C     -0.088812   -4.319630    0.306730
  C     -0.655215   -3.046499    0.285130
  C     -1.792043   -0.359233   -0.076332
  C     -2.370075    0.940352   -0.130811
  C     -1.524020    2.073426   -0.008926
  C     -0.121468    1.910023    0.109139
  C     -3.740867    1.118883   -0.268952
  C     -4.296828    2.395125   -0.282869
  C     -3.497412    3.501278   -0.145451
  C     -2.100465    3.368825    0.000130
  C     -1.262189    4.488590    0.157488
  C      0.088542    4.319051    0.312821
  C      0.654795    3.045858    0.290905
  H      2.476586    1.191131   -0.141521
  H      4.381124   -0.252163   -0.355684
  H      5.366361   -2.507752   -0.388549
  H      3.927240   -4.492355   -0.142324
  H      1.700950   -5.476061    0.160874
  H     -0.730701   -5.177939    0.444592
  H     -1.721803   -2.964299    0.422642
  H     -2.476730   -1.190827   -0.145510
  H     -4.380762    0.252899   -0.361605
  H     -5.365472    2.508675   -0.395318
  H     -3.926501    4.492907   -0.145371
  H     -1.700626    5.475981    0.163765
  H      0.730228    5.177074    0.453375
  H      1.721020    2.963218    0.430959

----------------------------
CARTESIAN COORDINATES (A.U.)
----------------------------
  NO LB      ZA    FRAG     MASS         X           Y           Z
   0 C     6.0000    0    12.011    4.479075   -1.776556   -0.242698
   1 C     6.0000    0    12.011    2.880090   -3.918081   -0.016610
   2 C     6.0000    0    12.011    0.229160   -3.609867    0.201884
   3 C     6.0000    0    12.011   -0.848679   -1.075586    0.077481
   4 C     6.0000    0    12.011    0.848286    1.075272    0.079886
   5 C     6.0000    0    12.011    3.386349    0.679074   -0.139449
   6 C     6.0000    0    12.011    7.069968   -2.113329   -0.499784
   7 C     6.0000    0    12.011    8.121081   -4.524854   -0.525377
   8 C     6.0000    0    12.011    6.610246   -6.615542   -0.269630
   9 C     6.0000    0    12.011    3.969805   -6.365866    0.000366
  10 C     6.0000    0    12.011    2.385452   -8.482513    0.292074
  11 C     6.0000    0    12.011   -0.167830   -8.162919    0.579636
  12 C     6.0000    0    12.011   -1.238177   -5.757049    0.538817
  13 C     6.0000    0    12.011   -3.386470   -0.678851   -0.144247
  14 C     6.0000    0    12.011   -4.478792    1.777008   -0.247197
  15 C     6.0000    0    12.011   -2.879981    3.918207   -0.016867
  16 C     6.0000    0    12.011   -0.229542    3.609421    0.206243
  17 C     6.0000    0    12.011   -7.069215    2.114382   -0.508245
  18 C     6.0000    0    12.011   -8.119828    4.526131   -0.534546
  19 C     6.0000    0    12.011   -6.609151    6.616456   -0.274863
  20 C     6.0000    0    12.011   -3.969304    6.366157    0.000246
  21 C     6.0000    0    12.011   -2.385192    8.482205    0.297609
  22 C     6.0000    0    12.011    0.167320    8.161823    0.591146
  23 C     6.0000    0    12.011    1.237382    5.755838    0.549730
  24 H     1.0000    0     1.008    4.680070    2.250911   -0.267437
  25 H     1.0000    0     1.008    8.279124   -0.476518   -0.672146
  26 H     1.0000    0     1.008   10.140953   -4.738964   -0.734251
  27 H     1.0000    0     1.008    7.421408   -8.489320   -0.268953
  28 H     1.0000    0     1.008    3.214329  -10.348256    0.304007
  29 H     1.0000    0     1.008   -1.380824   -9.784886    0.840158
  30 H     1.0000    0     1.008   -3.253735   -5.601713    0.798677
  31 H     1.0000    0     1.008   -4.680341   -2.250338   -0.274973
  32 H     1.0000    0     1.008   -8.278441    0.477911   -0.683334
  33 H     1.0000    0     1.008  -10.139273    4.740709   -0.747043
  34 H     1.0000    0     1.008   -7.420012    8.490364   -0.274711
  35 H     1.0000    0     1.008   -3.213718   10.348105    0.309471
  36 H     1.0000    0     1.008    1.379931    9.783252    0.856754
  37 H     1.0000    0     1.008    3.252257    5.599671    0.814394

--------------------------------
INTERNAL COORDINATES (ANGSTROEM)
--------------------------------
 C      0   0   0     0.000000000000     0.00000000     0.00000000
 C      1   0   0     1.419339175715     0.00000000     0.00000000
 C      2   1   0     1.416986744296   120.34245955     0.00000000
 C      3   2   1     1.458821004199   119.28793364     2.74407617
 C      4   3   2     1.449779768610   118.65283887   351.69449366
 C      5   4   3     1.364297090366   119.27810995     8.60071258
 C      1   2   3     1.389252372882   119.61519002   181.12406082
 C      7   1   2     1.392143048902   120.85387644   359.66158325
 C      8   7   1     1.371682788457   120.36474536   359.31986960
 C      9   8   7     1.410747900298   120.77998460     0.57505836
 C     10   9   8     1.407597539235   121.77029414   180.67833551
 C     11  10   9     1.370158321813   120.08727055   179.21424119
 C      3   2   1     1.387715266643   118.04603739   183.00984755
 C      4   3   2     1.364307380743   122.01893089   168.96337239
 C     14   4   3     1.423379433537   122.92420598   179.45167022
 C     15  14   4     1.419338203221   118.91568347   357.60443533
 C     16  15  14     1.416965760368   120.33947008     2.58722865
 C     15  14   4     1.389254659086   121.45568644   179.10929965
 C     18  15  14     1.392149809792   120.85382999   178.16811994
 C     19  18  15     1.371685534233   120.36678639   359.30113232
 C     20  19  18     1.410744094403   120.77867705     0.56804036
 C     21  20  19     1.407600922962   121.77318464   180.71792758
 C     22  21  20     1.370162639571   120.08798198   179.18520928
 C     17  16  15     1.387711712689   118.04851524   183.07329896
 H      6   5   4     1.079413233056   120.75030426   175.91015053
 H      7   1   2     1.080729398173   119.32439054   179.97136112
 H      8   7   1     1.080526476760   119.49520196   179.78295603
 H      9   8   7     1.080484250962   120.57445014   180.64469853
 H     11  10   9     1.080374317884   119.07895069   359.82162714
 H     12  11  10     1.080611106264   120.12503470   181.19433273
 H     13   3   2     1.078552648782   120.48485049   177.20553099
 H     14   4   3     1.079412887556   120.75306662   358.68601030
 H     18  15  14     1.080729703085   119.32601741   358.47259604
 H     19  18  15     1.080527350673   119.49452295   179.76627361
 H     20  19  18     1.080484592281   120.57491563   180.64538051
 H     22  21  20     1.080374508219   119.07907229   359.80505650
 H     23  22  21     1.080611159599   120.12535854   181.21915158
 H     24  17  16     1.078555532470   120.48302654   177.16699699

---------------------------
INTERNAL COORDINATES (A.U.)
---------------------------
 C      0   0   0     0.000000000000     0.00000000     0.00000000
 C      1   0   0     2.682162333247     0.00000000     0.00000000
 C      2   1   0     2.677716882116   120.34245955     0.00000000
 C      3   2   1     2.756772176349   119.28793364     2.74407617
 C      4   3   2     2.739686717172   118.65283887   351.69449366
 C      5   4   3     2.578147866098   119.27810995     8.60071258
 C      1   2   3     2.625306515647   119.61519002   181.12406082
 C      7   1   2     2.630769101667   120.85387644   359.66158325
 C      8   7   1     2.592104812796   120.36474536   359.31986960
 C      9   8   7     2.665927175568   120.77998460     0.57505836
 C     10   9   8     2.659973855936   121.77029414   180.67833551
 C     11  10   9     2.589223988340   120.08727055   179.21424119
 C      3   2   1     2.622401805817   118.04603739   183.00984755
 C      4   3   2     2.578167312092   122.01893089   168.96337239
 C     14   4   3     2.689797314042   122.92420598   179.45167022
 C     15  14   4     2.682160495499   118.91568347   357.60443533
 C     16  15  14     2.677677228239   120.33947008     2.58722865
 C     15  14   4     2.625310835946   121.45568644   179.10929965
 C     18  15  14     2.630781877897   120.85382999   178.16811994
 C     19  18  15     2.592110001562   120.36678639   359.30113232
 C     20  19  18     2.665919983468   120.77867705     0.56804036
 C     21  20  19     2.659980250252   121.77318464   180.71792758
 C     22  21  20     2.589232147721   120.08798198   179.18520928
 C     17  16  15     2.622395089817   118.04851524   183.07329896
 H      6   5   4     2.039795395806   120.75030426   175.91015053
 H      7   1   2     2.042282587424   119.32439054   179.97136112
 H      8   7   1     2.041899121527   119.49520196   179.78295603
 H      9   8   7     2.041819326333   120.57445014   180.64469853
 H     11  10   9     2.041611582923   119.07895069   359.82162714
 H     12  11  10     2.042059048113   120.12503470   181.19433273
 H     13   3   2     2.038169127213   120.48485049   177.20553099
 H     14   4   3     2.039794742906   120.75306662   358.68601030
 H     18  15  14     2.042283163624   119.32601741   358.47259604
 H     19  18  15     2.041900772983   119.49452295   179.76627361
 H     20  19  18     2.041819971332   120.57491563   180.64538051
 H     22  21  20     2.041611942603   119.07907229   359.80505650
 H     23  22  21     2.042059148902   120.12535854   181.21915158
 H     24  17  16     2.038174576594   120.48302654   177.16699699

---------------------
BASIS SET INFORMATION
---------------------
There are 2 groups of distinct atoms

 Group   1 Type C   : 11s6p2d1f contracted to 5s3p2d1f pattern {62111/411/11/1}
 Group   2 Type H   : 5s1p contracted to 3s1p pattern {311/1}

Atom   0C    basis set group =>   1
Atom   1C    basis set group =>   1
Atom   2C    basis set group =>   1
Atom   3C    basis set group =>   1
Atom   4C    basis set group =>   1
Atom   5C    basis set group =>   1
Atom   6C    basis set group =>   1
Atom   7C    basis set group =>   1
Atom   8C    basis set group =>   1
Atom   9C    basis set group =>   1
Atom  10C    basis set group =>   1
Atom  11C    basis set group =>   1
Atom  12C    basis set group =>   1
Atom  13C    basis set group =>   1
Atom  14C    basis set group =>   1
Atom  15C    basis set group =>   1
Atom  16C    basis set group =>   1
Atom  17C    basis set group =>   1
Atom  18C    basis set group =>   1
Atom  19C    basis set group =>   1
Atom  20C    basis set group =>   1
Atom  21C    basis set group =>   1
Atom  22C    basis set group =>   1
Atom  23C    basis set group =>   1
Atom  24H    basis set group =>   2
Atom  25H    basis set group =>   2
Atom  26H    basis set group =>   2
Atom  27H    basis set group =>   2
Atom  28H    basis set group =>   2
Atom  29H    basis set group =>   2
Atom  30H    basis set group =>   2
Atom  31H    basis set group =>   2
Atom  32H    basis set group =>   2
Atom  33H    basis set group =>   2
Atom  34H    basis set group =>   2
Atom  35H    basis set group =>   2
Atom  36H    basis set group =>   2
Atom  37H    basis set group =>   2


           ************************************************************
           *        Program running with 104 parallel MPI-processes   *
           *              working on a common directory               *
           ************************************************************
------------------------------------------------------------------------------
                             ORCA STARTUP CALCULATIONS
------------------------------------------------------------------------------
------------------------------------------------------------------------------
                   ___                                                        
                  /   \      - P O W E R E D   B Y -                         
                 /     \                                                     
                 |  |  |   _    _      __       _____    __    __             
                 |  |  |  | |  | |    /  \     |  _  \  |  |  /  |          
                  \  \/   | |  | |   /    \    | | | |  |  | /  /          
                 / \  \   | |__| |  /  /\  \   | |_| |  |  |/  /          
                |  |  |   |  __  | /  /__\  \  |    /   |      \           
                |  |  |   | |  | | |   __   |  |    \   |  |\   \          
                \     /   | |  | | |  |  |  |  | |\  \  |  | \   \       
                 \___/    |_|  |_| |__|  |__|  |_| \__\ |__|  \__/        
                                                                              
                      - O R C A' S   B I G   F R I E N D -                    
                                      &                                       
                       - I N T E G R A L  F E E D E R -                       
                                                                              
 v1 FN, 2020, v2 2021, v3 2022-2024                                           
------------------------------------------------------------------------------


----------------------
SHARK INTEGRAL PACKAGE
----------------------

Number of atoms                             ...     38
Number of basis functions                   ...    828
Number of shells                            ...    320
Maximum angular momentum                    ...      3
Integral batch strategy                     ... SHARK/LIBINT Hybrid
RI-J (if used) integral strategy            ... SPLIT-RIJ (Revised 2003 algorithm where possible)
Printlevel                                  ...      1
Contraction scheme used                     ... SEGMENTED contraction
Prescreening option                         ... SCHWARTZ
   Thresh                                   ... 1.000e-10
   Tcut                                     ... 1.000e-11
   Tpresel                                  ... 1.000e-11 
Coulomb Range Separation                    ... NOT USED
Exchange Range Separation                   ... NOT USED
Multipole approximations                    ... NOT USED
Finite Nucleus Model                        ... NOT USED
CABS basis                                  ... NOT available
Auxiliary Coulomb fitting basis             ... NOT available
Auxiliary J/K fitting basis                 ... NOT available
Auxiliary Correlation fitting basis         ... NOT available
Auxiliary 'external' fitting basis          ... NOT available

Checking pre-screening integrals            ... done (  0.0 sec) Dimension = 320
Check shell pair data                       ... done (  0.0 sec)
Shell pair information
Shell pair cut-off parameter TPreSel        ...   1.0e-11
Total number of shell pairs                 ...     51360
Shell pairs after pre-screening             ...     35846
Total number of primitive shell pairs       ...    159900
Primitive shell pairs kept                  ...     74140
          la=0 lb=0:   8605 shell pairs
          la=1 lb=0:  10176 shell pairs
          la=1 lb=1:   2957 shell pairs
          la=2 lb=0:   5294 shell pairs
          la=2 lb=1:   3096 shell pairs
          la=2 lb=2:    823 shell pairs
          la=3 lb=0:   2476 shell pairs
          la=3 lb=1:   1464 shell pairs
          la=3 lb=2:    758 shell pairs
          la=3 lb=3:    197 shell pairs

Calculating one electron integrals          ... done (  0.6 sec)
Calculating Nuclear repulsion               ... done (  0.0 sec) ENN=   1791.765427546931 Eh

Diagonalization of the overlap matrix:
Smallest eigenvalue                        ... 3.109e-06
Time for diagonalization                   ...    0.121 sec
Threshold for overlap eigenvalues          ... 1.000e-07
Number of eigenvalues below threshold      ... 0
Time for construction of square roots      ...    0.058 sec
Total time needed                          ...    0.205 sec

-------------------
DFT GRID GENERATION
-------------------

General Integration Accuracy     IntAcc      ... 4.959
Radial Grid Type                 RadialGrid  ... OptM3 with GC (2021)
Angular Grid (max. ang.)         AngularGrid ... 6 (Lebedev-590)
Angular grid pruning method      GridPruning ... 4 (adaptive)
Weight generation scheme         WeightScheme... mBecke (2022)
Basis function cutoff            BFCut       ... 1.0000e-10
Integration weight cutoff        WCut        ... 1.0000e-14
Partially contracted basis set               ... off
Rotationally invariant grid construction     ... off
Angular grids for H and He will be reduced by one unit

Total number of grid points                  ...   457589
Total number of batches                      ...     7166
Average number of points per batch           ...       63
Average number of grid points per atom       ...    12042
Initializing property integral containers    ... done (  0.0 sec)

SHARK setup successfully completed in   5.3 seconds

Maximum memory used throughout the entire STARTUP-calculation: 115.6 MB


           ************************************************************
           *        Program running with 104 parallel MPI-processes   *
           *              working on a common directory               *
           ************************************************************
-------------------------------------------------------------------------------
                                 ORCA GUESS
                   Start orbitals & Density for SCF / CASSCF
-------------------------------------------------------------------------------

------------
SCF SETTINGS
------------
Hamiltonian:
 Density Functional     Method          .... DFT(GTOs)
 Exchange Functional    Exchange        .... PBE
   PBE kappa parameter   XKappa         ....  0.804000
   PBE mue parameter    XMuePBE         ....  0.219520
 Correlation Functional Correlation     .... P86
 LDA part of GGA corr.  LDAOpt          .... VWN-5
 Gradients option       PostSCFGGA      .... off
 Hybrid DFT is turned on
   Fraction HF Exchange ScalHFX         ....  0.690000
   Scaling of DF-GGA-X  ScalDFX         ....  0.310000
   Scaling of DF-GGA-C  ScalDFC         ....  0.403800
   Scaling of DF-LDA-C  ScalLDAC        ....  0.403800
   Perturbative correction              ....  1.000000


General Settings:
 Integral files         IntName         .... compas3x_hc_c24h14_0pent_11_tz_nori
 Hartree-Fock type      HFTyp           .... RHF
 Total Charge           Charge          ....    0
 Multiplicity           Mult            ....    1
 Number of Electrons    NEL             ....  158
 Basis Dimension        Dim             ....  828
 Nuclear Repulsion      ENuc            ....   1791.7654275469 Eh

Convergence Acceleration:
 AO-DIIS                CNVDIIS         .... on
   Start iteration      DIISMaxIt       ....    12
   Startup error        DIISStart       ....  0.200000
   # of expansion vecs  DIISMaxEq       ....     5
   Bias factor          DIISBfac        ....   1.050
   Max. coefficient     DIISMaxC        ....  10.000
 MO-DIIS                CNVKDIIS        .... off
 Trust-Rad. Augm. Hess. CNVTRAH         .... auto
   Auto Start mean grad. ratio tolernc. ....  1.125000
   Auto Start start iteration           ....    50
   Auto Start num. interpolation iter.  ....    10
   Max. Number of Micro iterations      ....    24
   Max. Number of Macro iterations      .... Maxiter - #DIIS iter
   Number of Davidson start vectors     ....     2
   Converg. threshold    (grad. norm)   ....   5.000e-05
   Grad. Scal. Fac. for Micro threshold ....   0.100
   Minimum threshold for Micro iter.    ....   1.000e-02
   NR start threshold (gradient norm)   ....   1.000e-04
   Initial trust radius                 ....   0.400
   Minimum AH scaling param. (alpha)    ....   1.000
   Maximum AH scaling param. (alpha)    .... 1000.000
   Quad. conv. algorithm                .... NR
   White noise on init. David. guess    .... on
   Maximum white noise                  ....   0.010
   Pseudo random numbers                .... off
   Inactive MOs                         .... canonical
   Orbital update algorithm             .... Taylor
   Preconditioner                       .... Diag
   Full preconditioner red. dimension   ....   250
 SOSCF                  CNVSOSCF        .... on
   Start iteration      SOSCFMaxIt      ....   150
   Startup grad/error   SOSCFStart      ....  0.003300
   Hessian update       SOSCFHessUp     .... L-BFGS
 Level Shifting         CNVShift        .... on
   Level shift para.    LevelShift      ....    0.2500
   Turn off err/grad.   ShiftErr        ....    0.0010
 Zerner damping         CNVZerner       .... off
 Static damping         CNVDamp         .... on
   Fraction old density DampFac         ....    0.7000
   Max. Damping (<1)    DampMax         ....    0.9800
   Min. Damping (>=0)   DampMin         ....    0.0000
   Turn off err/grad.   DampErr         ....    0.1000

SCF Procedure:
 Maximum # iterations   MaxIter         ....   125
 SCF integral mode      SCFMode         .... Direct
   Integral package                     .... SHARK and LIBINT hybrid scheme
 Reset frequency        DirectResetFreq ....    20
 Integral Threshold     Thresh          ....  1.000e-10 Eh
 Primitive CutOff       TCut            ....  1.000e-11 Eh

Convergence Tolerance:
 Convergence Check Mode ConvCheckMode   .... Total+1el-Energy
 Convergence forced     ConvForced      .... 0
 Energy Change          TolE            ....  1.000e-06 Eh
 1-El. energy change                    ....  1.000e-03 Eh
 Orbital Gradient       TolG            ....  5.000e-05
 Orbital Rotation angle TolX            ....  5.000e-05
 DIIS Error             TolErr          ....  1.000e-06

------------------------------
INITIAL GUESS: MODEL POTENTIAL
------------------------------
Loading Hartree-Fock densities                     ... done
Calculating cut-offs                               ... done
Initializing the effective Hamiltonian             ... done
Setting up the integral package (SHARK)            ... done
Starting the Coulomb interaction                   ... done (   0.1 sec)
Making the grid                                    ... done (   0.3 sec)
Mapping shells                                     ... done
Starting the XC term evaluation                    ... done (   0.1 sec)
  promolecular density results
     # of electrons  =    157.976058033
     EX              =   -127.038874952
     EC              =      0.201990995
     EX+EC           =   -126.836883957
Transforming the Hamiltonian                       ... done (   0.1 sec)
Diagonalizing the Hamiltonian                      ... done (   0.1 sec)
Back transforming the eigenvectors                 ... done (   0.1 sec)
Now organizing SCF variables                       ... done
                      ------------------
                      INITIAL GUESS DONE (   0.9 sec)
                      ------------------
             **** ENERGY FILE WAS UPDATED (compas3x_hc_c24h14_0pent_11_tz_nori.en.tmp) ****
Finished Guess after  15.8 sec
Maximum memory used throughout the entire GUESS-calculation: 63.5 MB


           ************************************************************
           *        Program running with 104 parallel MPI-processes   *
           *              working on a common directory               *
           ************************************************************

-------------------------------------------------------------------------------------------
                                      ORCA LEAN-SCF
                              memory conserving SCF solver
-------------------------------------------------------------------------------------------

----------------------------------------D-I-I-S--------------------------------------------
Iteration    Energy (Eh)           Delta-E    RMSDP     MaxDP     DIISErr   Damp  Time(sec)
-------------------------------------------------------------------------------------------
               ***  Starting incremental Fock matrix formation  ***
    1    -918.9901615811077136     0.00e+00  9.30e-04  2.90e-02  1.46e-01  0.700   7.2
    2    -919.1722439578079502    -1.82e-01  7.91e-04  2.78e-02  9.17e-02  0.700   7.5
                               ***Turning on AO-DIIS***
    3    -919.2803811256699191    -1.08e-01  5.75e-04  2.12e-02  5.25e-02  0.700   6.3
    4    -919.3480134087471924    -6.76e-02  1.39e-03  5.08e-02  3.58e-02  0.000   6.4
    5    -919.4956256809991828    -1.48e-01  1.49e-04  9.54e-03  3.46e-03  0.000   6.4
                              *** Initializing SOSCF ***
---------------------------------------S-O-S-C-F--------------------------------------
Iteration    Energy (Eh)           Delta-E    RMSDP     MaxDP     MaxGrad    Time(sec)
--------------------------------------------------------------------------------------
    6    -919.4960725459436617    -4.47e-04  8.01e-05  4.19e-03  1.42e-03     6.2
               *** Restarting incremental Fock matrix formation ***
    7    -919.4962299819267173    -1.57e-04  1.08e-04  5.99e-03  1.23e-03     6.5
    8    -919.4963345637543171    -1.05e-04  9.62e-05  6.48e-03  8.24e-04     5.3
    9    -919.4963561147196742    -2.16e-05  5.43e-05  2.26e-03  6.41e-04     5.2
   10    -919.4963690705581030    -1.30e-05  3.32e-05  1.73e-03  1.30e-04     5.1
   11    -919.4963691946659310    -1.24e-07  2.50e-05  1.51e-03  8.96e-05     5.5
                 **** Energy Check signals convergence ****

               *****************************************************
               *                     SUCCESS                       *
               *           SCF CONVERGED AFTER  11 CYCLES          *
               *****************************************************

             **** ENERGY FILE WAS UPDATED (compas3x_hc_c24h14_0pent_11_tz_nori.en.tmp) ****

----------------
TOTAL SCF ENERGY
----------------

Total Energy       :       -919.49636919466593 Eh          -25020.76824 eV

Components:
Nuclear Repulsion  :       1791.76542754693082 Eh           48756.41601 eV
Electronic Energy  :      -2711.26179674159675 Eh          -73777.18425 eV
One Electron Energy:      -4804.03525020972938 Eh         -130724.44506 eV
Two Electron Energy:       2092.77345346813263 Eh           56947.26081 eV

Virial components:
Potential Energy   :      -1837.05057461053320 Eh          -49988.68751 eV
Kinetic Energy     :        917.55420541586727 Eh           24967.91927 eV
Virial Ratio       :          2.00211667470688

DFT components:
N(Alpha)           :       79.000018584344 electrons
N(Beta)            :       79.000018584344 electrons
N(Total)           :      158.000037168688 electrons
E(X)               :      -40.064179517496 Eh       
E(C)               :       -2.355117341858 Eh       
E(XC)              :      -42.419296859355 Eh       

---------------
SCF CONVERGENCE
---------------

  Last Energy change         ...    1.2411e-07  Tolerance :   1.0000e-06
  Last MAX-Density change    ...    1.5057e-03  Tolerance :   1.0000e-05
  Last RMS-Density change    ...    2.4996e-05  Tolerance :   1.0000e-06
  Last DIIS Error            ...    1.4209e-03  Tolerance :   1.0000e-06
  Last Orbital Gradient      ...    8.9603e-05  Tolerance :   5.0000e-05
  Last Orbital Rotation      ...    1.7063e-04  Tolerance :   5.0000e-05


----------------
ORBITAL ENERGIES
----------------

  NO   OCC          E(Eh)            E(eV) 
   0   2.0000     -10.836520      -294.8767 
   1   2.0000     -10.835863      -294.8588 
   2   2.0000     -10.834697      -294.8271 
   3   2.0000     -10.834653      -294.8259 
   4   2.0000     -10.830415      -294.7106 
   5   2.0000     -10.830411      -294.7105 
   6   2.0000     -10.829975      -294.6986 
   7   2.0000     -10.829973      -294.6985 
   8   2.0000     -10.828851      -294.6680 
   9   2.0000     -10.828845      -294.6679 
  10   2.0000     -10.822481      -294.4947 
  11   2.0000     -10.822475      -294.4945 
  12   2.0000     -10.821993      -294.4814 
  13   2.0000     -10.821988      -294.4813 
  14   2.0000     -10.821267      -294.4616 
  15   2.0000     -10.821264      -294.4616 
  16   2.0000     -10.821234      -294.4607 
  17   2.0000     -10.821229      -294.4606 
  18   2.0000     -10.820514      -294.4412 
  19   2.0000     -10.820513      -294.4411 
  20   2.0000     -10.820344      -294.4365 
  21   2.0000     -10.820340      -294.4364 
  22   2.0000     -10.819696      -294.4189 
  23   2.0000     -10.819694      -294.4189 
  24   2.0000      -1.094433       -29.7810 
  25   2.0000      -1.077011       -29.3070 
  26   2.0000      -1.029771       -28.0215 
  27   2.0000      -1.020995       -27.7827 
  28   2.0000      -1.012255       -27.5449 
  29   2.0000      -0.975077       -26.5332 
  30   2.0000      -0.947422       -25.7807 
  31   2.0000      -0.921806       -25.0836 
  32   2.0000      -0.916493       -24.9390 
  33   2.0000      -0.914144       -24.8751 
  34   2.0000      -0.899637       -24.4804 
  35   2.0000      -0.848297       -23.0833 
  36   2.0000      -0.807170       -21.9642 
  37   2.0000      -0.782494       -21.2927 
  38   2.0000      -0.770527       -20.9671 
  39   2.0000      -0.770013       -20.9531 
  40   2.0000      -0.753728       -20.5100 
  41   2.0000      -0.727503       -19.7964 
  42   2.0000      -0.702660       -19.1204 
  43   2.0000      -0.650034       -17.6883 
  44   2.0000      -0.646673       -17.5969 
  45   2.0000      -0.638039       -17.3619 
  46   2.0000      -0.635026       -17.2799 
  47   2.0000      -0.619344       -16.8532 
  48   2.0000      -0.612065       -16.6551 
  49   2.0000      -0.609800       -16.5935 
  50   2.0000      -0.572086       -15.5673 
  51   2.0000      -0.561395       -15.2763 
  52   2.0000      -0.546397       -14.8682 
  53   2.0000      -0.545044       -14.8314 
  54   2.0000      -0.531962       -14.4754 
  55   2.0000      -0.527185       -14.3454 
  56   2.0000      -0.527030       -14.3412 
  57   2.0000      -0.516674       -14.0594 
  58   2.0000      -0.506607       -13.7855 
  59   2.0000      -0.501044       -13.6341 
  60   2.0000      -0.500672       -13.6240 
  61   2.0000      -0.495214       -13.4754 
  62   2.0000      -0.480879       -13.0854 
  63   2.0000      -0.476839       -12.9754 
  64   2.0000      -0.473016       -12.8714 
  65   2.0000      -0.442246       -12.0341 
  66   2.0000      -0.438079       -11.9207 
  67   2.0000      -0.433189       -11.7877 
  68   2.0000      -0.428781       -11.6677 
  69   2.0000      -0.417527       -11.3615 
  70   2.0000      -0.415838       -11.3155 
  71   2.0000      -0.408709       -11.1215 
  72   2.0000      -0.371454       -10.1078 
  73   2.0000      -0.341702        -9.2982 
  74   2.0000      -0.307459        -8.3664 
  75   2.0000      -0.303256        -8.2520 
  76   2.0000      -0.303007        -8.2452 
  77   2.0000      -0.282950        -7.6995 
  78   2.0000      -0.204309        -5.5595 
  79   0.0000      -0.034209        -0.9309 
  80   0.0000       0.036641         0.9971 
  81   0.0000       0.054856         1.4927 
  82   0.0000       0.056759         1.5445 
  83   0.0000       0.064101         1.7443 
  84   0.0000       0.101938         2.7739 
  85   0.0000       0.110573         3.0088 
  86   0.0000       0.112987         3.0745 
  87   0.0000       0.117780         3.2050 
  88   0.0000       0.126216         3.4345 
  89   0.0000       0.131175         3.5694 
*Only the first 10 virtual orbitals were printed.
-------
TIMINGS
-------

Total SCF time: 0 days 0 hours 1 min 22 sec 

Total time                  ....      82.855 sec
Sum of individual times     ....      82.519 sec  ( 99.6%)

SCF preparation             ....      14.620 sec  ( 17.6%)
Fock matrix formation       ....      59.563 sec  ( 71.9%)
  Startup                   ....       0.965 sec  (  1.6% of F)
  Coulomb+Exchange Fock     ....      49.832 sec  ( 83.7% of F)
  XC integration            ....       6.596 sec  ( 11.1% of F)
    XC Preparation          ....       0.000 sec  (  0.0% of XC)
    Basis function eval.    ....       0.468 sec  (  7.1% of XC)
    Density eval.           ....       0.506 sec  (  7.7% of XC)
    XC-Functional eval.     ....       0.035 sec  (  0.5% of XC)
    XC-Potential eval.      ....       0.434 sec  (  6.6% of XC)
Diagonalization             ....       0.000 sec  (  0.0%)
Density matrix formation    ....       1.513 sec  (  1.8%)
Total Energy calculation    ....       0.947 sec  (  1.1%)
Population analysis         ....       0.000 sec  (  0.0%)
Orbital Transformation      ....       0.731 sec  (  0.9%)
Orbital Orthonormalization  ....       0.000 sec  (  0.0%)
DIIS solution               ....       3.382 sec  (  4.1%)
SOSCF solution              ....       1.700 sec  (  2.1%)
Finished LeanSCF after  83.2 sec

Maximum memory used throughout the entire LEANSCF-calculation: 118.8 MB


           ************************************************************
           *        Program running with 104 parallel MPI-processes   *
           *              working on a common directory               *
           ************************************************************

------------------------------------------------------------------------------
                                ORCA  MP2 
------------------------------------------------------------------------------


----------
MP2 ENERGY (disk based algorithm)
----------

Dimension of the basis                      ...  828
Memory devoted to MP2                       ... 4096 MB   
Data format for buffers                     ... DOUBLE
Compression type for matrix containers      ... UNCOMPRESSED
Scaling for aa/bb pairs                     ...   5.710e-02
Scaling for ab pairs                        ...   5.979e-01
Overall scaling of the MP2 energy           ...   1.000e+00

-------------------------
SHARK HALF TRANSFORMATION (Exchange order)
-------------------------

Number of basis functions                   ...    828
Number of operators                         ...      1
   Operator  0:    0-  78 (p-index in (p*|q*))
   Operator  0:    0-  78 (q-index in (p*|q*)
Integral generator used                     ... SHARK
Contraction scheme used                     ... SEGMENTED CONTRACTION
MaxCore in resort                           ...   4096 MB

Half transformed integrals for op=   0      ... compas3x_hc_c24h14_0pent_11_tz_nori.SHARK_MNPQ0.tmp
Resorted half transformed integrals         ... compas3x_hc_c24h14_0pent_11_tz_nori.KAO_aa.tmp


ORCA finished by error termination in MP2
Calling Command: mpirun -np 104  /apps/orca/6.0.1/orca_mp2_mpi compas3x_hc_c24h14_0pent_11_tz_nori.mp2inp.tmp compas3x_hc_c24h14_0pent_11_tz_nori 
[file orca_tools/qcmsg.cpp, line 394]: 
  .... aborting the run

