
                                 *****************
                                 * O   R   C   A *
                                 *****************

                                            #,                                       
                                            ###                                      
                                            ####                                     
                                            #####                                    
                                            ######                                   
                                           ########,                                 
                                     ,,################,,,,,                         
                               ,,#################################,,                 
                          ,,##########################################,,             
                       ,#########################################, ''#####,          
                    ,#############################################,,   '####,        
                  ,##################################################,,,,####,       
                ,###########''''           ''''###############################       
              ,#####''   ,,,,##########,,,,          '''####'''          '####       
            ,##' ,,,,###########################,,,                        '##       
           ' ,,###''''                  '''############,,,                           
         ,,##''                                '''############,,,,        ,,,,,,###''
      ,#''                                            '''#######################'''  
     '                                                          ''''####''''         
             ,#######,   #######,   ,#######,      ##                                
            ,#'     '#,  ##    ##  ,#'     '#,    #''#        ,####,   ,####,        
            ##       ##  ##   ,#'  ##            #'  '#       #'       #'  '#        
            ##       ##  #######   ##           ,######,      #####,   #    #        
            '#,     ,#'  ##    ##  '#,     ,#' ,#      #,     #,   #   #,  ,#        
             '#######'   ##     ##  '#######'  #'      '#     '####' # '####'        



                #########################################################
                #                        -***-                          #
                #          Department of theory and spectroscopy        #
                #                                                       #
                #                      Frank Neese                      #
                #                                                       #
                #     Directorship, Architecture, Infrastructure        #
                #                    SHARK, DRIVERS                     #
                #        Core code/Algorithms in most modules           #
                #                                                       #
                #        Max Planck Institute fuer Kohlenforschung      #
                #                Kaiser Wilhelm Platz 1                 #
                #                 D-45470 Muelheim/Ruhr                 #
                #                      Germany                          #
                #                                                       #
                #                  All rights reserved                  #
                #                        -***-                          #
                #########################################################


                         Program Version 6.0.1  -  RELEASE   -


 With contributions from (in alphabetic order):
[Max-Planck-Institut fuer Kohlenforschung]                               
  Daniel Aravena         : Magnetic Suceptibility                        
  Michael Atanasov       : Ab Initio Ligand Field Theory (pilot matlab implementation)
  Alexander A. Auer      : GIAO ZORA, VPT2 properties, NMR spectrum      
  Ute Becker             : All parallelization in ORCA, NUMFREQ, NUMCALC 
  Giovanni Bistoni       : ED, misc. LED, open-shell LED, HFLD           
  Martin Brehm           : Molecular dynamics                            
  Dmytro Bykov           : pre 5.0 version of the SCF Hessian            
  Marcos Casanova-Páez   : Triplet and SCS-CIS(D). UHF-(DLPNO)-IP/EA/STEOM-CCSD. UHF-CVS-IP/STEOM-CCSD   
  Vijay G. Chilkuri      : MRCI spin determinant printing, contributions to CSF-ICE 
  Pauline Colinet        : FMM embedding                                 
  Dipayan Datta          : RHF DLPNO-CCSD density                        
  Achintya Kumar Dutta   : EOM-CC, STEOM-CC                              
  Nicolas Foglia         : Exact transition moments, OPA infrastructure, MCD improvements    
  Dmitry Ganyushin       : Spin-Orbit,Spin-Spin,Magnetic field MRCI      
  Miquel Garcia-Rates    : C-PCM and meta-GGA Hessian, CCSD/C-PCM, Gaussian charge scheme 
  Tiago L. C. Gouveia    : GS-ROHF, GS-ROCIS                             
  Yang Guo               : DLPNO-NEVPT2, F12-NEVPT2, CIM, IAO-localization        
  Andreas Hansen         : Spin unrestricted coupled pair/coupled cluster methods 
  Ingolf Harden          : AUTO-CI MPn and infrastructure                
  Benjamin Helmich-Paris : MC-RPA, TRAH-(SCF,CASSCF), AVAS, COSX integrals, SCF dyn. polar. 
  Lee Huntington         : MR-EOM, pCC                                   
  Robert Izsak           : Overlap fitted RIJCOSX, COSX-SCS-MP3, EOM     
  Riya Kayal             : Wick's Theorem for AUTO-CI, AUTO-CI UHF-CCSDT 
  Emily Kempfer          : AUTO-CI, RHF CISDT and CCSDT                  
  Christian Kollmar      : KDIIS, OOCD, Brueckner-CCSD(T), CCSD density, CASPT2, CASPT2-K, improved NEVPT2 
  Axel Koslowski         : Symmetry handling                             
  Simone Kossmann        : meta-GGA functionals, TD-DFT gradient, OOMP2, (MP2 Hessian; deprecated post 5.0) 
  Lucas Lang             : DCDCAS                                        
  Marvin Lechner         : AUTO-CI (C++ implementation), FIC-MRCC        
  Spencer Leger          : CASSCF response                               
  Dagmar Lenk            : GEPOL surface, SMD, ORCA-2-JSON               
  Dimitrios Liakos       : Extrapolation schemes; Compound Job, initial MDCI parallelization 
  Dimitrios Manganas     : Further ROCIS development; embedding schemes. LFT, Crystal Embedding 
  Dimitrios Pantazis     : SARC Basis sets                               
  Anastasios Papadopoulos: AUTO-CI, single reference methods and gradients 
  Taras Petrenko         : pre 6.0 DFT Hessian and TD-DFT gradient, (ASA, deprecated), ECA, 1-Electron XAS/XES, NRVS 
  Peter Pinski           : DLPNO-MP2, DLPNO-MP2 Gradient                 
  Christoph Reimann      : Effective Core Potentials                     
  Marius Retegan         : Local ZFS, SOC                                
  Christoph Riplinger    : Optimizer, TS searches, QM/MM, DLPNO-CCSD(T), (RO)-DLPNO pert. Triples 
  Michael Roemelt        : Original ROCIS implementation                 
  Masaaki Saitow         : Open-shell DLPNO-CCSD energy and density      
  Barbara Sandhoefer     : DKH picture change effects                    
  Kantharuban Sivalingam : CASSCF convergence/infrastructure, NEVPT2 and variants, FIC-MRCI 
  Bernardo de Souza      : ESD, SOC TD-DFT                               
  Georgi L. Stoychev     : AutoAux, RI-MP2 NMR, DLPNO-MP2 response, X2C  
  Van Anh Tran           : RI-MP2 g-tensors                              
  Willem Van den Heuvel  : Paramagnetic NMR                              
  Zikuan Wang            : NOTCH, Electric field optimization            
  Frank Wennmohs         : Technical directorship and infrastructure     
  Hang Xu                : AUTO-CI-Response properties                   
                                                                         
[FACCTs GmbH]                                                            
  Markus Bursch, Miquel Garcia-Rates, Christoph Riplinger, Bernardo de Souza, Georgi L. Stoychev 
                                                                 
  APM, Basis sets (HGBS, AHGBS, def-TZVP (Ac-Lr), def2-XVPD (La-Lu)), CI-OPT, improved COSX, DLPNO-Multilevel,           
  DOCKER, DRACO, updates on ESD, GOAT, IRC, LR-CPCM, MBIS, meta-GGA TD-DFT gradient, ML-optimized integration grids, 
  MM, NACMEs, nearIR, NEB, NEB-TS, NL-DFT gradient (VV10), 2- and 3-layer-ONIOM, interface openCOSMO-RS, QMMM,   
  Crystal-QMMM, SF, symmetry and pop. for TD-DFT, r2SCAN hybrids, SOLVATOR                                   
                                                                         
[Other institutions]                                                     
  V. Asgeirsson          : NEB                                           
  Christoph Bannwarth    : sTDA-DFT, sTD-DFT, PBEh-3c, B97-3c, D3        
  Sebastian Ehlert       : rSCAN, r2SCAN, r2SCAN-3c, D4, dhf basis sets  
  Marvin Friede          : D4 for Fr, Ra, Ac-Lr                          
  Lars Goerigk           : TD-DFT with DH, B97 family of functionals     
  Stefan Grimme          : VdW corrections, initial TS optimization, DFT functionals, gCP, sTDA/sTD-DF 
  Waldemar Hujo          : DFT-NL                                        
  H. Jonsson             : NEB                                           
  Holger Kruse           : gCP                                           
  Marcel Mueller         : wB97X-3c, vDZP basis set                      
  Hagen Neugebauer       : wr2SCAN                                       
  Tobias Risthaus        : range-separated hybrid DFT                    
  Lukas Wittmann         : regularized MP2, r2SCAN double-hybrids, wr2SCAN        
                                                                         
We gratefully acknowledge several colleagues who have allowed us to      
interface, adapt or use parts of their codes:                            
  Ed Valeev, F. Pavosevic, A. Kumar             : LibInt (2-el integral package), F12 methods 
  Garnet Chan, S. Sharma, J. Yang, R. Olivares  : DMRG                   
  Ulf Ekstrom                                   : XCFun DFT Library      
  Mihaly Kallay                                 : mrcc  (arbitrary order and MRCC methods)
  Frank Weinhold                                : gennbo (NPA and NBO analysis)           
  Simon Mueller                                 : openCOSMO-RS                            
  Christopher J. Cramer and Donald G. Truhlar   : smd solvation model                     
  S Lehtola, MJT Oliveira, MAL Marques          : LibXC Library                           
  Liviu Ungur et al                             : ANISO software                          


 Your calculation uses the libint2 library for the computation of 2-el integrals
 For citations please refer to: http://libint.valeyev.net

 Your ORCA version has been built with support for libXC version: 6.2.2
 For citations please refer to: https://libxc.gitlab.io

 This ORCA versions uses:
   CBLAS   interface :  Fast vector & matrix operations
   LAPACKE interface :  Fast linear algebra routines
   SCALAPACK package :  Parallel linear algebra routines
   Shared memory     :  Shared parallel matrices
   BLAS/LAPACK       :  OpenBLAS 0.3.27  USE64BITINT DYNAMIC_ARCH NO_AFFINITY SapphireRapids SINGLE_THREADED
        Core in use  :  SapphireRapids
   Copyright (c) 2011-2014, The OpenBLAS Project




***************************************
The coordinates will be read from file: /scratch/kx58/rs2200/dhdft/inputs/compas3x-xyzs/hc_c24h14_0pent_1.xyz
***************************************


Your calculation utilizes the atom-pairwise dispersion correction
based on EEQ partial charges (D4)


Warning: RI is on but no J-basis has been assigned. Assigning Def2/J (nothing to worry about!)
================================================================================

----- Orbital basis set information -----
Your calculation utilizes the basis: def2-QZVPP
   F. Weigend and R. Ahlrichs, Phys. Chem. Chem. Phys. 7, 3297 (2005).

----- AuxJ basis set information -----
Your calculation utilizes the auxiliary basis: def2/J
   F. Weigend, Phys. Chem. Chem. Phys. 8, 1057 (2006).

----- AuxC basis set information -----
Your calculation utilizes the auxiliary basis: def2-QZVPP/C
  H-La, Hf-Rn : A. Hellweg, C. Hattig, S. Hofener and W. Klopper, Theor. Chem. Acc. 117, 587 (2007).
        Ce-Lu : J. Chmela and M. E. Harding, Mol. Phys. (2018).

================================================================================
                                        WARNINGS
                       Please study these warnings very carefully!
================================================================================


WARNING: No MP2 level density has been requested!
         To calculate MP2 level properties use
         %mp2 Density relaxed end
         or
         %mp2 Density unrelaxed end
         Otherwise for double-hybrid DFT only the energy is correct!

================================================================================
                                       INPUT FILE
================================================================================
NAME = compas3x_hc_c24h14_0pent_1_qz_ri.inp
|  1> ! RKS revDSD-PBEP86-D4/2021 defgrid3  NOPOP NoFrozencore NoUseSym
|  2> 
|  3> %basis
|  4> Basis "def2-QZVPP"
|  5> 
|  6> AuxC "def2-QZVPP/C"
|  7> end
|  8> 
|  9> %method
| 10> ScalHFX 0.69
| 11> ScalDFX 0.31
| 12> ScalDFC 0.4038
| 13> ScalLDAC 0.4038
| 14> 
| 15> D4S6 0.4612
| 16> D4S8 0.0
| 17> D4A1 0.44
| 18> D4A2 3.60
| 19> end
| 20> 
| 21> %mp2
| 22> PS 0.5979
| 23> PT 0.0571
| 24> 
| 25> end
| 26> 
| 27> %pal
| 28> nprocs 104
| 29> end
| 30> 
| 31> *XYZFILE 0 1 /scratch/kx58/rs2200/dhdft/inputs/compas3x-xyzs/hc_c24h14_0pent_1.xyz
| 32> 
| 33>                          ****END OF INPUT****
================================================================================

                       ****************************
                       * Single Point Calculation *
                       ****************************

---------------------------------
CARTESIAN COORDINATES (ANGSTROEM)
---------------------------------
  C      1.797600    0.544505    0.134254
  C      0.655153   -0.289472    0.088532
  C     -0.655305    0.289422    0.087789
  C     -0.808216    1.695616    0.132844
  C      0.355055    2.547316   -0.032654
  C      1.643959    1.977934   -0.032017
  C      3.047450   -0.038068    0.337574
  C      3.182122   -1.405820    0.458285
  C      2.080356   -2.227331    0.337080
  C      0.808013   -1.695664    0.133795
  C     -0.355070   -2.547369   -0.032991
  C     -1.643976   -1.977990   -0.033799
  C     -1.797803   -0.544555    0.132255
  C     -3.047882    0.038025    0.334146
  C     -3.182690    1.405782    0.454660
  C     -2.080788    2.227288    0.334675
  C      0.231116    3.929013   -0.228540
  C      1.331931    4.733541   -0.404817
  C      2.602581    4.172209   -0.404237
  C      2.749004    2.816698   -0.227356
  C     -0.230908   -3.929068   -0.228720
  C     -1.331524   -4.733603   -0.406204
  C     -2.602176   -4.172277   -0.407031
  C     -2.748801   -2.816763   -0.230339
  H      3.928635    0.575438    0.431383
  H      4.155898   -1.836021    0.642154
  H      2.220253   -3.291926    0.430535
  H     -3.929172   -0.575477    0.426982
  H     -4.156673    1.835988    0.637413
  H     -2.220792    3.291886    0.427937
  H     -0.745767    4.383599   -0.266685
  H      1.207597    5.795702   -0.556491
  H      3.471634    4.795519   -0.555480
  H      3.742941    2.400632   -0.264559
  H      0.746020   -4.383648   -0.265780
  H     -1.207018   -5.795766   -0.557725
  H     -3.471059   -4.795594   -0.559218
  H     -3.742698   -2.400704   -0.268648

----------------------------
CARTESIAN COORDINATES (A.U.)
----------------------------
  NO LB      ZA    FRAG     MASS         X           Y           Z
   0 C     6.0000    0    12.011    3.396971    1.028965    0.253704
   1 C     6.0000    0    12.011    1.238059   -0.547022    0.167300
   2 C     6.0000    0    12.011   -1.238348    0.546927    0.165898
   3 C     6.0000    0    12.011   -1.527307    3.204250    0.251038
   4 C     6.0000    0    12.011    0.670956    4.813730   -0.061708
   5 C     6.0000    0    12.011    3.106633    3.737754   -0.060503
   6 C     6.0000    0    12.011    5.758846   -0.071938    0.637923
   7 C     6.0000    0    12.011    6.013338   -2.656615    0.866034
   8 C     6.0000    0    12.011    3.931303   -4.209045    0.636990
   9 C     6.0000    0    12.011    1.526924   -3.204341    0.252836
  10 C     6.0000    0    12.011   -0.670985   -4.813829   -0.062343
  11 C     6.0000    0    12.011   -3.106664   -3.737859   -0.063872
  12 C     6.0000    0    12.011   -3.397355   -1.029059    0.249925
  13 C     6.0000    0    12.011   -5.759662    0.071857    0.631445
  14 C     6.0000    0    12.011   -6.014412    2.656542    0.859182
  15 C     6.0000    0    12.011   -3.932120    4.208965    0.632444
  16 C     6.0000    0    12.011    0.436745    7.424759   -0.431879
  17 C     6.0000    0    12.011    2.516986    8.945096   -0.764994
  18 C     6.0000    0    12.011    4.918166    7.884333   -0.763897
  19 C     6.0000    0    12.011    5.194866    5.322787   -0.429640
  20 C     6.0000    0    12.011   -0.436352   -7.424862   -0.432218
  21 C     6.0000    0    12.011   -2.516216   -8.945213   -0.767614
  22 C     6.0000    0    12.011   -4.917401   -7.884461   -0.769177
  23 C     6.0000    0    12.011   -5.194481   -5.322910   -0.435277
  24 H     1.0000    0     1.008    7.424044    1.087420    0.815195
  25 H     1.0000    0     1.008    7.853508   -3.469577    1.213494
  26 H     1.0000    0     1.008    4.195670   -6.220838    0.813593
  27 H     1.0000    0     1.008   -7.425059   -1.087494    0.806878
  28 H     1.0000    0     1.008   -7.854974    3.469515    1.204536
  29 H     1.0000    0     1.008   -4.196688    6.220763    0.808684
  30 H     1.0000    0     1.008   -1.409296    8.283802   -0.503962
  31 H     1.0000    0     1.008    2.282028   10.952290   -1.051616
  32 H     1.0000    0     1.008    6.560437    9.062218   -1.049705
  33 H     1.0000    0     1.008    7.073133    4.536536   -0.499945
  34 H     1.0000    0     1.008    1.409773   -8.283894   -0.502251
  35 H     1.0000    0     1.008   -2.280933  -10.952410   -1.053947
  36 H     1.0000    0     1.008   -6.559350   -9.062359   -1.056770
  37 H     1.0000    0     1.008   -7.072674   -4.536672   -0.507671

--------------------------------
INTERNAL COORDINATES (ANGSTROEM)
--------------------------------
 C      0   0   0     0.000000000000     0.00000000     0.00000000
 C      1   0   0     1.415200702073     0.00000000     0.00000000
 C      2   1   0     1.432626302058   120.02130500     0.00000000
 C      3   2   1     1.415201139192   120.02149535     0.00000000
 C      4   3   2     1.451200094487   119.53247804     9.66849795
 C      5   4   3     1.409067263596   119.73755650   350.36360517
 C      1   2   3     1.393863699139   118.83402272   170.40645490
 C      7   1   2     1.379657266730   120.97329619     1.67642287
 C      8   7   1     1.379658251174   120.30939808     2.04924126
 C      9   8   7     1.393861633182   120.97385540   357.94854071
 C     10   9   8     1.451199790392   121.63390998   178.24880634
 C     11  10   9     1.409067282498   119.73755951   170.44229048
 C      3   2   1     1.415201114130   120.02127227   184.21808123
 C     13   3   2     1.393863807256   118.83399093   170.40701582
 C     14  13   3     1.379657407215   120.97331337     1.67632208
 C     15  14  13     1.379658238957   120.30941919     2.04893808
 C      5   4   3     1.401006631116   121.59002582   168.72382362
 C     17   5   4     1.374821151756   121.61545687   180.96197284
 C     18  17   5     1.389116545988   119.72840809     0.66986119
 C     19  18  17     1.374823108805   119.72848169     0.00000000
 C     11  10   9     1.401006510500   121.58993913   348.80250989
 C     21  11  10     1.374821080073   121.61543327   180.96138853
 C     22  21  11     1.389116467937   119.72838010     0.66954834
 C     23  22  21     1.374823157227   119.72851620     0.00000000
 H      7   1   2     1.077810638106   120.52322846   183.38649375
 H      8   7   1     1.080333352039   119.84468911   181.64855362
 H      9   8   7     1.077806605680   118.48149938   179.62810660
 H     14  13   3     1.077810591605   120.52327140   183.38634189
 H     15  14  13     1.080333394330   119.84468202   181.64837379
 H     16  15  14     1.077806623404   118.48143633   179.62819306
 H     17   5   4     1.078148171800   120.06131975   359.54513158
 H     18  17   5     1.080116431258   120.08568220   179.84065518
 H     19  18  17     1.080111611893   120.18049301   179.16854389
 H     20  19  18     1.078148405354   118.30935848   177.93973664
 H     21  11  10     1.078148065349   120.06125593   359.54441391
 H     22  21  11     1.080116052314   120.08570950   179.84069112
 H     23  22  21     1.080111524665   120.18048424   179.16905159
 H     24  23  22     1.078148407785   118.30926980   177.93941951

---------------------------
INTERNAL COORDINATES (A.U.)
---------------------------
 C      0   0   0     0.000000000000     0.00000000     0.00000000
 C      1   0   0     2.674341751452     0.00000000     0.00000000
 C      2   1   0     2.707271363141   120.02130500     0.00000000
 C      3   2   1     2.674342577486   120.02149535     0.00000000
 C      4   3   2     2.742370744100   119.53247804     9.66849795
 C      5   4   3     2.662751232470   119.73755650   350.36360517
 C      1   2   3     2.634020659388   118.83402272   170.40645490
 C      7   1   2     2.607174392794   120.97329619     1.67642287
 C      8   7   1     2.607176253123   120.30939808     2.04924126
 C      9   8   7     2.634016755294   120.97385540   357.94854071
 C     10   9   8     2.742370169444   121.63390998   178.24880634
 C     11  10   9     2.662751268191   119.73755951   170.44229048
 C      3   2   1     2.674342530126   120.02127227   184.21808123
 C     13   3   2     2.634020863699   118.83399093   170.40701582
 C     14  13   3     2.607174658272   120.97331337     1.67632208
 C     15  14  13     2.607176230036   120.30941919     2.04893808
 C      5   4   3     2.647518844616   121.59002582   168.72382362
 C     17   5   4     2.598035459941   121.61545687   180.96197284
 C     18  17   5     2.625049840016   119.72840809     0.66986119
 C     19  18  17     2.598039158227   119.72848169     0.00000000
 C     11  10   9     2.647518616685   121.58993913   348.80250989
 C     21  11  10     2.598035324480   121.61543327   180.96138853
 C     22  21  11     2.625049692521   119.72838010     0.66954834
 C     23  22  21     2.598039249731   119.72851620     0.00000000
 H      7   1   2     2.036766930247   120.52322846   183.38649375
 H      8   7   1     2.041534168695   119.84468911   181.64855362
 H      9   8   7     2.036759310067   118.48149938   179.62810660
 H     14  13   3     2.036766842373   120.52327140   183.38634189
 H     15  14  13     2.041534248614   119.84468202   181.64837379
 H     16  15  14     2.036759343561   118.48143633   179.62819306
 H     17   5   4     2.037404776490   120.06131975   359.54513158
 H     18  17   5     2.041124247825   120.08568220   179.84065518
 H     19  18  17     2.041115140546   120.18049301   179.16854389
 H     20  19  18     2.037405217843   118.30935848   177.93973664
 H     21  11  10     2.037404575326   120.06125593   359.54441391
 H     22  21  11     2.041123531727   120.08570950   179.84069112
 H     23  22  21     2.041114975709   120.18048424   179.16905159
 H     24  23  22     2.037405222438   118.30926980   177.93941951

---------------------
BASIS SET INFORMATION
---------------------
There are 2 groups of distinct atoms

 Group   1 Type C   : 15s8p3d2f1g contracted to 7s4p3d2f1g pattern {8211111/5111/111/11/1}
 Group   2 Type H   : 7s3p2d1f contracted to 4s3p2d1f pattern {4111/111/11/1}

Atom   0C    basis set group =>   1
Atom   1C    basis set group =>   1
Atom   2C    basis set group =>   1
Atom   3C    basis set group =>   1
Atom   4C    basis set group =>   1
Atom   5C    basis set group =>   1
Atom   6C    basis set group =>   1
Atom   7C    basis set group =>   1
Atom   8C    basis set group =>   1
Atom   9C    basis set group =>   1
Atom  10C    basis set group =>   1
Atom  11C    basis set group =>   1
Atom  12C    basis set group =>   1
Atom  13C    basis set group =>   1
Atom  14C    basis set group =>   1
Atom  15C    basis set group =>   1
Atom  16C    basis set group =>   1
Atom  17C    basis set group =>   1
Atom  18C    basis set group =>   1
Atom  19C    basis set group =>   1
Atom  20C    basis set group =>   1
Atom  21C    basis set group =>   1
Atom  22C    basis set group =>   1
Atom  23C    basis set group =>   1
Atom  24H    basis set group =>   2
Atom  25H    basis set group =>   2
Atom  26H    basis set group =>   2
Atom  27H    basis set group =>   2
Atom  28H    basis set group =>   2
Atom  29H    basis set group =>   2
Atom  30H    basis set group =>   2
Atom  31H    basis set group =>   2
Atom  32H    basis set group =>   2
Atom  33H    basis set group =>   2
Atom  34H    basis set group =>   2
Atom  35H    basis set group =>   2
Atom  36H    basis set group =>   2
Atom  37H    basis set group =>   2
---------------------------------
AUXILIARY/J BASIS SET INFORMATION
---------------------------------
There are 2 groups of distinct atoms

 Group   1 Type C   : 12s5p4d2f1g contracted to 6s4p3d1f1g pattern {711111/2111/211/2/1}
 Group   2 Type H   : 5s2p1d contracted to 3s1p1d pattern {311/2/1}

Atom   0C    basis set group =>   1
Atom   1C    basis set group =>   1
Atom   2C    basis set group =>   1
Atom   3C    basis set group =>   1
Atom   4C    basis set group =>   1
Atom   5C    basis set group =>   1
Atom   6C    basis set group =>   1
Atom   7C    basis set group =>   1
Atom   8C    basis set group =>   1
Atom   9C    basis set group =>   1
Atom  10C    basis set group =>   1
Atom  11C    basis set group =>   1
Atom  12C    basis set group =>   1
Atom  13C    basis set group =>   1
Atom  14C    basis set group =>   1
Atom  15C    basis set group =>   1
Atom  16C    basis set group =>   1
Atom  17C    basis set group =>   1
Atom  18C    basis set group =>   1
Atom  19C    basis set group =>   1
Atom  20C    basis set group =>   1
Atom  21C    basis set group =>   1
Atom  22C    basis set group =>   1
Atom  23C    basis set group =>   1
Atom  24H    basis set group =>   2
Atom  25H    basis set group =>   2
Atom  26H    basis set group =>   2
Atom  27H    basis set group =>   2
Atom  28H    basis set group =>   2
Atom  29H    basis set group =>   2
Atom  30H    basis set group =>   2
Atom  31H    basis set group =>   2
Atom  32H    basis set group =>   2
Atom  33H    basis set group =>   2
Atom  34H    basis set group =>   2
Atom  35H    basis set group =>   2
Atom  36H    basis set group =>   2
Atom  37H    basis set group =>   2
---------------------------------
AUXILIARY/C BASIS SET INFORMATION
---------------------------------
There are 2 groups of distinct atoms

 Group   1 Type C   : 9s8p7d5f3g1h contracted to 9s8p7d5f3g1h pattern {111111111/11111111/1111111/11111/111/1}
 Group   2 Type H   : 6s4p3d2f1g contracted to 6s4p3d2f1g pattern {111111/1111/111/11/1}

Atom   0C    basis set group =>   1
Atom   1C    basis set group =>   1
Atom   2C    basis set group =>   1
Atom   3C    basis set group =>   1
Atom   4C    basis set group =>   1
Atom   5C    basis set group =>   1
Atom   6C    basis set group =>   1
Atom   7C    basis set group =>   1
Atom   8C    basis set group =>   1
Atom   9C    basis set group =>   1
Atom  10C    basis set group =>   1
Atom  11C    basis set group =>   1
Atom  12C    basis set group =>   1
Atom  13C    basis set group =>   1
Atom  14C    basis set group =>   1
Atom  15C    basis set group =>   1
Atom  16C    basis set group =>   1
Atom  17C    basis set group =>   1
Atom  18C    basis set group =>   1
Atom  19C    basis set group =>   1
Atom  20C    basis set group =>   1
Atom  21C    basis set group =>   1
Atom  22C    basis set group =>   1
Atom  23C    basis set group =>   1
Atom  24H    basis set group =>   2
Atom  25H    basis set group =>   2
Atom  26H    basis set group =>   2
Atom  27H    basis set group =>   2
Atom  28H    basis set group =>   2
Atom  29H    basis set group =>   2
Atom  30H    basis set group =>   2
Atom  31H    basis set group =>   2
Atom  32H    basis set group =>   2
Atom  33H    basis set group =>   2
Atom  34H    basis set group =>   2
Atom  35H    basis set group =>   2
Atom  36H    basis set group =>   2
Atom  37H    basis set group =>   2


           ************************************************************
           *        Program running with 104 parallel MPI-processes   *
           *              working on a common directory               *
           ************************************************************
------------------------------------------------------------------------------
                             ORCA STARTUP CALCULATIONS
                           -- RI-GTO INTEGRALS CHOSEN --
------------------------------------------------------------------------------
------------------------------------------------------------------------------
                   ___                                                        
                  /   \      - P O W E R E D   B Y -                         
                 /     \                                                     
                 |  |  |   _    _      __       _____    __    __             
                 |  |  |  | |  | |    /  \     |  _  \  |  |  /  |          
                  \  \/   | |  | |   /    \    | | | |  |  | /  /          
                 / \  \   | |__| |  /  /\  \   | |_| |  |  |/  /          
                |  |  |   |  __  | /  /__\  \  |    /   |      \           
                |  |  |   | |  | | |   __   |  |    \   |  |\   \          
                \     /   | |  | | |  |  |  |  | |\  \  |  | \   \       
                 \___/    |_|  |_| |__|  |__|  |_| \__\ |__|  \__/        
                                                                              
                      - O R C A' S   B I G   F R I E N D -                    
                                      &                                       
                       - I N T E G R A L  F E E D E R -                       
                                                                              
 v1 FN, 2020, v2 2021, v3 2022-2024                                           
------------------------------------------------------------------------------


----------------------
SHARK INTEGRAL PACKAGE
----------------------

Number of atoms                             ...     38
Number of basis functions                   ...   1788
Number of shells                            ...    548
Maximum angular momentum                    ...      4
Integral batch strategy                     ... SHARK/LIBINT Hybrid
RI-J (if used) integral strategy            ... SPLIT-RIJ (Revised 2003 algorithm where possible)
Printlevel                                  ...      1
Contraction scheme used                     ... SEGMENTED contraction
Prescreening option                         ... SCHWARTZ
   Thresh                                   ... 1.000e-10
   Tcut                                     ... 1.000e-11
   Tpresel                                  ... 1.000e-11 
Coulomb Range Separation                    ... NOT USED
Exchange Range Separation                   ... NOT USED
Multipole approximations                    ... NOT USED
Finite Nucleus Model                        ... NOT USED
CABS basis                                  ... NOT available
Auxiliary Coulomb fitting basis             ... AVAILABLE
   # of basis functions in Aux-J            ...   1330
   # of shells in Aux-J                     ...    430
   Maximum angular momentum in Aux-J        ...      4
Auxiliary J/K fitting basis                 ... NOT available
Auxiliary Correlation fitting basis         ... AVAILABLE
   # of basis functions in Aux-C            ...   4168
   # of shells in Aux-C                     ...   1016
   Maximum angular momentum in Aux-C        ...      5
Auxiliary 'external' fitting basis          ... NOT available

Checking pre-screening integrals            ... done (  0.0 sec) Dimension = 548
Check shell pair data                       ... done (  0.0 sec)
Shell pair information
Shell pair cut-off parameter TPreSel        ...   1.0e-11
Total number of shell pairs                 ...    150426
Shell pairs after pre-screening             ...     91735
Total number of primitive shell pairs       ...    386901
Primitive shell pairs kept                  ...    163103
          la=0 lb=0:  13990 shell pairs
          la=1 lb=0:  20556 shell pairs
          la=1 lb=1:   7134 shell pairs
          la=2 lb=0:  12604 shell pairs
          la=2 lb=1:   9306 shell pairs
          la=2 lb=2:   3042 shell pairs
          la=3 lb=0:   7536 shell pairs
          la=3 lb=1:   5528 shell pairs
          la=3 lb=2:   3434 shell pairs
          la=3 lb=3:   1050 shell pairs
          la=4 lb=0:   2972 shell pairs
          la=4 lb=1:   2212 shell pairs
          la=4 lb=2:   1380 shell pairs
          la=4 lb=3:    812 shell pairs
          la=4 lb=4:    179 shell pairs

Calculating one electron integrals          ... done (  1.2 sec)
Calculating RI/J V-Matrix + Cholesky decomp.... done (  0.3 sec)
Calculating RI/C V-Matrix + Cholesky decomp.... done (  1.1 sec)
Calculating Nuclear repulsion               ... done (  0.0 sec) ENN=   1827.308642006096 Eh

Diagonalization of the overlap matrix:
Smallest eigenvalue                        ... 1.993e-07
Time for diagonalization                   ...    0.573 sec
Threshold for overlap eigenvalues          ... 1.000e-07
Number of eigenvalues below threshold      ... 0

IMPORTANT:
Smallest eigenvalue of S below the DiffSThresh (1.000e-06) while
Thresh>1e-12 and/or TCut>1e-13! In order to avoid SCF convergence issues,
Thresh will be set to at least 1e-12 and TCut to at least 1e-13.
This can be turned off by adding %SCF DiffSThresh -1 END to the input.

Time for construction of square roots      ...    0.340 sec
Total time needed                          ...    0.958 sec

-------------------
DFT GRID GENERATION
-------------------

General Integration Accuracy     IntAcc      ... 4.959
Radial Grid Type                 RadialGrid  ... OptM3 with GC (2021)
Angular Grid (max. ang.)         AngularGrid ... 6 (Lebedev-590)
Angular grid pruning method      GridPruning ... 4 (adaptive)
Weight generation scheme         WeightScheme... mBecke (2022)
Basis function cutoff            BFCut       ... 1.0000e-10
Integration weight cutoff        WCut        ... 1.0000e-14
Partially contracted basis set               ... off
Rotationally invariant grid construction     ... off
Angular grids for H and He will be reduced by one unit
Diffuse basis detected: some atoms will have their outermost
                        angular grid increased by 1.

Total number of grid points                  ...   467387
Total number of batches                      ...     7321
Average number of points per batch           ...       63
Average number of grid points per atom       ...    12300

--------------------
COSX GRID GENERATION
--------------------

GRIDX 1
-------
General Integration Accuracy     IntAcc      ... 4.020
Radial Grid Type                 RadialGrid  ... OptM3 with GC (2021)
Angular Grid (max. ang.)         AngularGrid ... 2 (Lebedev-110)
Angular grid pruning method      GridPruning ... 4 (adaptive)
Weight generation scheme         WeightScheme... mBecke (2022)
Basis function cutoff            BFCut       ... 1.0000e-10
Integration weight cutoff        WCut        ... 1.0000e-14
Partially contracted basis set               ... on
Rotationally invariant grid construction     ... off
Angular grids for H and He will be reduced by one unit
Diffuse basis detected: some atoms will have their outermost
                        angular grid increased by 1.

Total number of grid points                  ...    57742
Total number of batches                      ...      465
Average number of points per batch           ...      124
Average number of grid points per atom       ...     1520
UseSFitting                                  ... on

GRIDX 2
-------
General Integration Accuracy     IntAcc      ... 4.338
Radial Grid Type                 RadialGrid  ... OptM3 with GC (2021)
Angular Grid (max. ang.)         AngularGrid ... 3 (Lebedev-194)
Angular grid pruning method      GridPruning ... 4 (adaptive)
Weight generation scheme         WeightScheme... mBecke (2022)
Basis function cutoff            BFCut       ... 1.0000e-10
Integration weight cutoff        WCut        ... 1.0000e-14
Partially contracted basis set               ... on
Rotationally invariant grid construction     ... off
Angular grids for H and He will be reduced by one unit
Diffuse basis detected: some atoms will have their outermost
                        angular grid increased by 1.

Total number of grid points                  ...   124774
Total number of batches                      ...      995
Average number of points per batch           ...      125
Average number of grid points per atom       ...     3284
UseSFitting                                  ... on

GRIDX 3
-------
General Integration Accuracy     IntAcc      ... 4.871
Radial Grid Type                 RadialGrid  ... OptM3 with GC (2021)
Angular Grid (max. ang.)         AngularGrid ... 4 (Lebedev-302)
Angular grid pruning method      GridPruning ... 4 (adaptive)
Weight generation scheme         WeightScheme... mBecke (2022)
Basis function cutoff            BFCut       ... 1.0000e-10
Integration weight cutoff        WCut        ... 1.0000e-14
Partially contracted basis set               ... on
Rotationally invariant grid construction     ... off
Angular grids for H and He will be reduced by one unit
Diffuse basis detected: some atoms will have their outermost
                        angular grid increased by 1.

Total number of grid points                  ...   227580
Total number of batches                      ...     1802
Average number of points per batch           ...      126
Average number of grid points per atom       ...     5989
UseSFitting                                  ... on
Initializing property integral containers    ... done (  0.0 sec)

SHARK setup successfully completed in  15.0 seconds

Maximum memory used throughout the entire STARTUP-calculation: 222.5 MB


           ************************************************************
           *        Program running with 104 parallel MPI-processes   *
           *              working on a common directory               *
           ************************************************************
-------------------------------------------------------------------------------
                                 ORCA GUESS
                   Start orbitals & Density for SCF / CASSCF
-------------------------------------------------------------------------------

------------
SCF SETTINGS
------------
Hamiltonian:
 Density Functional     Method          .... DFT(GTOs)
 Exchange Functional    Exchange        .... PBE
   PBE kappa parameter   XKappa         ....  0.804000
   PBE mue parameter    XMuePBE         ....  0.219520
 Correlation Functional Correlation     .... P86
 LDA part of GGA corr.  LDAOpt          .... VWN-5
 Gradients option       PostSCFGGA      .... off
 Hybrid DFT is turned on
   Fraction HF Exchange ScalHFX         ....  0.690000
   Scaling of DF-GGA-X  ScalDFX         ....  0.310000
   Scaling of DF-GGA-C  ScalDFC         ....  0.403800
   Scaling of DF-LDA-C  ScalLDAC        ....  0.403800
   Perturbative correction              ....  1.000000
 RI-approximation to the Coulomb term is turned on
   Number of AuxJ basis functions       .... 1330
   RIJ-COSX (HFX calculated with COS-X)).... on


General Settings:
 Integral files         IntName         .... compas3x_hc_c24h14_0pent_1_qz_ri
 Hartree-Fock type      HFTyp           .... RHF
 Total Charge           Charge          ....    0
 Multiplicity           Mult            ....    1
 Number of Electrons    NEL             ....  158
 Basis Dimension        Dim             .... 1788
 Nuclear Repulsion      ENuc            ....   1827.3086420061 Eh

Convergence Acceleration:
 AO-DIIS                CNVDIIS         .... on
   Start iteration      DIISMaxIt       ....    12
   Startup error        DIISStart       ....  0.200000
   # of expansion vecs  DIISMaxEq       ....     5
   Bias factor          DIISBfac        ....   1.050
   Max. coefficient     DIISMaxC        ....  10.000
 MO-DIIS                CNVKDIIS        .... off
 Trust-Rad. Augm. Hess. CNVTRAH         .... auto
   Auto Start mean grad. ratio tolernc. ....  1.125000
   Auto Start start iteration           ....    50
   Auto Start num. interpolation iter.  ....    10
   Max. Number of Micro iterations      ....    24
   Max. Number of Macro iterations      .... Maxiter - #DIIS iter
   Number of Davidson start vectors     ....     2
   Converg. threshold    (grad. norm)   ....   5.000e-05
   Grad. Scal. Fac. for Micro threshold ....   0.100
   Minimum threshold for Micro iter.    ....   1.000e-02
   NR start threshold (gradient norm)   ....   1.000e-04
   Initial trust radius                 ....   0.400
   Minimum AH scaling param. (alpha)    ....   1.000
   Maximum AH scaling param. (alpha)    .... 1000.000
   Quad. conv. algorithm                .... NR
   White noise on init. David. guess    .... on
   Maximum white noise                  ....   0.010
   Pseudo random numbers                .... off
   Inactive MOs                         .... canonical
   Orbital update algorithm             .... Taylor
   Preconditioner                       .... Diag
   Full preconditioner red. dimension   ....   250
 SOSCF                  CNVSOSCF        .... on
   Start iteration      SOSCFMaxIt      ....   150
   Startup grad/error   SOSCFStart      ....  0.003300
   Hessian update       SOSCFHessUp     .... L-BFGS
 Level Shifting         CNVShift        .... on
   Level shift para.    LevelShift      ....    0.2500
   Turn off err/grad.   ShiftErr        ....    0.0010
 Zerner damping         CNVZerner       .... off
 Static damping         CNVDamp         .... on
   Fraction old density DampFac         ....    0.7000
   Max. Damping (<1)    DampMax         ....    0.9800
   Min. Damping (>=0)   DampMin         ....    0.0000
   Turn off err/grad.   DampErr         ....    0.1000

SCF Procedure:
 Maximum # iterations   MaxIter         ....   125
 SCF integral mode      SCFMode         .... Direct
   Integral package                     .... SHARK and LIBINT hybrid scheme
 Reset frequency        DirectResetFreq ....    20
 Integral Threshold     Thresh          ....  1.000e-12 Eh
 Primitive CutOff       TCut            ....  1.000e-13 Eh

Convergence Tolerance:
 Convergence Check Mode ConvCheckMode   .... Total+1el-Energy
 Convergence forced     ConvForced      .... 0
 Energy Change          TolE            ....  1.000e-06 Eh
 1-El. energy change                    ....  1.000e-03 Eh
 Orbital Gradient       TolG            ....  5.000e-05
 Orbital Rotation angle TolX            ....  5.000e-05
 DIIS Error             TolErr          ....  1.000e-06

------------------------------
INITIAL GUESS: MODEL POTENTIAL
------------------------------
Loading Hartree-Fock densities                     ... done
Calculating cut-offs                               ... done
Initializing the effective Hamiltonian             ... done
Setting up the integral package (SHARK)            ... done
Starting the Coulomb interaction                   ... done (   0.4 sec)
Making the grid                                    ... done (   0.3 sec)
Mapping shells                                     ... done
Starting the XC term evaluation                    ... done (   0.1 sec)
  promolecular density results
     # of electrons  =    157.989949506
     EX              =   -127.054789566
     EC              =      0.196371143
     EX+EC           =   -126.858418423
Transforming the Hamiltonian                       ... done (   0.3 sec)
Diagonalizing the Hamiltonian                      ... done (   0.4 sec)
Back transforming the eigenvectors                 ... done (   0.2 sec)
Now organizing SCF variables                       ... done
                      ------------------
                      INITIAL GUESS DONE (   2.0 sec)
                      ------------------
             **** ENERGY FILE WAS UPDATED (compas3x_hc_c24h14_0pent_1_qz_ri.en.tmp) ****
Finished Guess after  17.8 sec
Maximum memory used throughout the entire GUESS-calculation: 199.0 MB


           ************************************************************
           *        Program running with 104 parallel MPI-processes   *
           *              working on a common directory               *
           ************************************************************

-------------------------------------------------------------------------------------------
                                      ORCA LEAN-SCF
                              memory conserving SCF solver
-------------------------------------------------------------------------------------------

----------------------------------------D-I-I-S--------------------------------------------
Iteration    Energy (Eh)           Delta-E    RMSDP     MaxDP     DIISErr   Damp  Time(sec)
-------------------------------------------------------------------------------------------
               ***  Starting incremental Fock matrix formation  ***
    1    -919.0525077838456127     0.00e+00  2.41e-03  6.71e-01  1.53e-01  0.700  12.8
    2    -919.2399801657293210    -1.87e-01  2.85e-03  8.01e-01  9.50e-02  0.700   9.2
                               ***Turning on AO-DIIS***
    3    -919.3506848926399471    -1.11e-01  6.92e-04  1.86e-01  5.76e-02  0.700   8.4
    4    -919.4198129026626702    -6.91e-02  1.06e-03  2.53e-01  3.97e-02  0.000   8.2
    5    -919.5709835309139635    -1.51e-01  7.60e-04  2.12e-01  3.89e-03  0.000   8.4
                              *** Initializing SOSCF ***
---------------------------------------S-O-S-C-F--------------------------------------
Iteration    Energy (Eh)           Delta-E    RMSDP     MaxDP     MaxGrad    Time(sec)
--------------------------------------------------------------------------------------
    6    -919.5712445818976448    -2.61e-04  2.42e-04  6.64e-02  1.08e-03     9.0
               *** Restarting incremental Fock matrix formation ***
    7    -919.5712863908279360    -4.18e-05  2.70e-04  5.97e-02  7.39e-04    12.1
    8    -919.5713007506492431    -1.44e-05  1.24e-04  2.45e-02  5.46e-04    10.3
    9    -919.5713074458103620    -6.70e-06  1.01e-04  1.75e-02  1.40e-04    10.1
   10    -919.5713082202059923    -7.74e-07  1.53e-05  3.37e-03  1.37e-05     9.9
                 **** Energy Check signals convergence ****

               *****************************************************
               *                     SUCCESS                       *
               *           SCF CONVERGED AFTER  10 CYCLES          *
               *****************************************************

Recomputing exchange energy using gridx3       ... done (   14.078 sec)
Old exchange energy                            :    -89.566754601 Eh
New exchange energy                            :    -89.566760111 Eh
Exchange energy change after final integration :     -0.000005510 Eh
Total energy after final integration           :   -919.571313730 Eh
             **** ENERGY FILE WAS UPDATED (compas3x_hc_c24h14_0pent_1_qz_ri.en.tmp) ****

----------------
TOTAL SCF ENERGY
----------------

Total Energy       :       -919.57131373015557 Eh          -25022.80758 eV

Components:
Nuclear Repulsion  :       1827.30864200609631 Eh           49723.59605 eV
Electronic Energy  :      -2746.87995022630230 Eh          -74746.40348 eV
One Electron Energy:      -4875.15561291195536 Eh         -132659.72852 eV
Two Electron Energy:       2128.27566268565306 Eh           57913.32504 eV

Virial components:
Potential Energy   :      -1837.12943099310132 Eh          -49990.83330 eV
Kinetic Energy     :        917.55811726294564 Eh           24968.02572 eV
Virial Ratio       :          2.00219408060300

DFT components:
N(Alpha)           :       78.999999445584 electrons
N(Beta)            :       78.999999445584 electrons
N(Total)           :      157.999998891167 electrons
E(X)               :      -40.066353457299 Eh       
E(C)               :       -2.355620965397 Eh       
E(XC)              :      -42.421974422696 Eh       

---------------
SCF CONVERGENCE
---------------

  Last Energy change         ...    7.7440e-07  Tolerance :   1.0000e-06
  Last MAX-Density change    ...    3.3659e-03  Tolerance :   1.0000e-05
  Last RMS-Density change    ...    1.5333e-05  Tolerance :   1.0000e-06
  Last DIIS Error            ...    1.0777e-03  Tolerance :   1.0000e-06
  Last Orbital Gradient      ...    1.3682e-05  Tolerance :   5.0000e-05
  Last Orbital Rotation      ...    5.2036e-05  Tolerance :   5.0000e-05


----------------
ORBITAL ENERGIES
----------------

  NO   OCC          E(Eh)            E(eV) 
   0   2.0000     -10.835499      -294.8489 
   1   2.0000     -10.835289      -294.8432 
   2   2.0000     -10.835108      -294.8383 
   3   2.0000     -10.835023      -294.8360 
   4   2.0000     -10.834526      -294.8224 
   5   2.0000     -10.834267      -294.8154 
   6   2.0000     -10.834036      -294.8091 
   7   2.0000     -10.833709      -294.8002 
   8   2.0000     -10.833448      -294.7931 
   9   2.0000     -10.833377      -294.7912 
  10   2.0000     -10.821737      -294.4744 
  11   2.0000     -10.821737      -294.4744 
  12   2.0000     -10.821510      -294.4683 
  13   2.0000     -10.821510      -294.4683 
  14   2.0000     -10.821497      -294.4679 
  15   2.0000     -10.821496      -294.4679 
  16   2.0000     -10.820627      -294.4442 
  17   2.0000     -10.820627      -294.4442 
  18   2.0000     -10.820299      -294.4353 
  19   2.0000     -10.820298      -294.4353 
  20   2.0000     -10.819863      -294.4234 
  21   2.0000     -10.819862      -294.4234 
  22   2.0000     -10.819821      -294.4223 
  23   2.0000     -10.819821      -294.4223 
  24   2.0000      -1.098580       -29.8939 
  25   2.0000      -1.064726       -28.9727 
  26   2.0000      -1.046647       -28.4807 
  27   2.0000      -1.036006       -28.1912 
  28   2.0000      -0.977587       -26.6015 
  29   2.0000      -0.972803       -26.4713 
  30   2.0000      -0.965955       -26.2850 
  31   2.0000      -0.932407       -25.3721 
  32   2.0000      -0.915857       -24.9217 
  33   2.0000      -0.893617       -24.3166 
  34   2.0000      -0.888979       -24.1903 
  35   2.0000      -0.878376       -23.9018 
  36   2.0000      -0.797967       -21.7138 
  37   2.0000      -0.778732       -21.1904 
  38   2.0000      -0.777735       -21.1633 
  39   2.0000      -0.771401       -20.9909 
  40   2.0000      -0.750838       -20.4313 
  41   2.0000      -0.710225       -19.3262 
  42   2.0000      -0.693916       -18.8824 
  43   2.0000      -0.687369       -18.7043 
  44   2.0000      -0.674337       -18.3496 
  45   2.0000      -0.626345       -17.0437 
  46   2.0000      -0.616685       -16.7809 
  47   2.0000      -0.616263       -16.7694 
  48   2.0000      -0.616064       -16.7640 
  49   2.0000      -0.588652       -16.0180 
  50   2.0000      -0.564275       -15.3547 
  51   2.0000      -0.562635       -15.3101 
  52   2.0000      -0.561811       -15.2877 
  53   2.0000      -0.542808       -14.7705 
  54   2.0000      -0.536920       -14.6103 
  55   2.0000      -0.531925       -14.4744 
  56   2.0000      -0.524803       -14.2806 
  57   2.0000      -0.524709       -14.2781 
  58   2.0000      -0.522220       -14.2103 
  59   2.0000      -0.522103       -14.2071 
  60   2.0000      -0.482266       -13.1231 
  61   2.0000      -0.480227       -13.0676 
  62   2.0000      -0.471362       -12.8264 
  63   2.0000      -0.467199       -12.7131 
  64   2.0000      -0.462274       -12.5791 
  65   2.0000      -0.457773       -12.4566 
  66   2.0000      -0.455999       -12.4084 
  67   2.0000      -0.444706       -12.1011 
  68   2.0000      -0.436968       -11.8905 
  69   2.0000      -0.411317       -11.1925 
  70   2.0000      -0.408787       -11.1236 
  71   2.0000      -0.371838       -10.1182 
  72   2.0000      -0.364964        -9.9312 
  73   2.0000      -0.363153        -9.8819 
  74   2.0000      -0.326874        -8.8947 
  75   2.0000      -0.303597        -8.2613 
  76   2.0000      -0.284087        -7.7304 
  77   2.0000      -0.264124        -7.1872 
  78   2.0000      -0.250149        -6.8069 
  79   0.0000       0.009931         0.2702 
  80   0.0000       0.023320         0.6346 
  81   0.0000       0.026862         0.7309 
  82   0.0000       0.055344         1.5060 
  83   0.0000       0.064917         1.7665 
  84   0.0000       0.075707         2.0601 
  85   0.0000       0.079297         2.1578 
  86   0.0000       0.080490         2.1902 
  87   0.0000       0.092076         2.5055 
  88   0.0000       0.092439         2.5154 
  89   0.0000       0.109276         2.9735 
*Only the first 10 virtual orbitals were printed.
-------
TIMINGS
-------

Total SCF time: 0 days 0 hours 2 min 9 sec 

Total time                  ....     129.682 sec
Sum of individual times     ....     129.095 sec  ( 99.5%)

SCF preparation             ....      15.519 sec  ( 12.0%)
Fock matrix formation       ....      92.639 sec  ( 71.4%)
  Startup                   ....       1.334 sec  (  1.4% of F)
  Split-RI-J                ....       6.240 sec  (  6.7% of F)
  Chain of spheres X        ....      72.063 sec  ( 77.8% of F)
  XC integration            ....       9.560 sec  ( 10.3% of F)
    XC Preparation          ....       0.000 sec  (  0.0% of XC)
    Basis function eval.    ....       0.829 sec  (  8.7% of XC)
    Density eval.           ....       1.889 sec  ( 19.8% of XC)
    XC-Functional eval.     ....       0.026 sec  (  0.3% of XC)
    XC-Potential eval.      ....       2.059 sec  ( 21.5% of XC)
Diagonalization             ....       0.000 sec  (  0.0%)
Density matrix formation    ....       3.019 sec  (  2.3%)
Total Energy calculation    ....       1.471 sec  (  1.1%)
Population analysis         ....       0.000 sec  (  0.0%)
Orbital Transformation      ....       2.215 sec  (  1.7%)
Orbital Orthonormalization  ....       0.000 sec  (  0.0%)
DIIS solution               ....      10.172 sec  (  7.8%)
SOSCF solution              ....       3.936 sec  (  3.0%)
Finished LeanSCF after 130.6 sec

Maximum memory used throughout the entire LEANSCF-calculation: 348.2 MB


           ************************************************************
           *        Program running with 104 parallel MPI-processes   *
           *              working on a common directory               *
           ************************************************************

------------------------------------------------------------------------------
                                ORCA  MP2 
------------------------------------------------------------------------------


-------------
RI-MP2 ENERGY
-------------
Dimension of the orbital basis            ... 1788
Dimension of the AuxC basis               ... 4168
Memory devoted to MP2                     ... 4096 MB   
Data format for matrix containers         ... DOUBLE
Compression type for matrix containers    ... UNCOMPRESSED
Scaling for aa/bb pairs                   ...   5.710e-02
Scaling for ab pairs                      ...   5.979e-01
Overall scaling of the MP2 energy         ...   1.000e+00

-----------------------
SHARK RI TRANSFORMATION
-----------------------

Number of basis functions                ...   1788
Number of aux functions                  ...   4168
Number of operators                      ...      1
Generation of IJK                        ... NO
Generation of IAK                        ... YES
Generation of ABK                        ... NO
Orbital Range Operator  0:    0-  78 to   79-1787

Aux basis identifier                     ...   AUXC
Contraction scheme used                  ... SEGMENTED
Do orthogonalization                     ... YES
All operator combinations                ... NO
Transpose (ia|K)                         ... NO
Integral generator used                  ... LIBINT
Starting integral generation + trafo... 
Half trafo (segmented) done. Total time =  4.9 sec. integrals=  1.4 sec trafo=  3.0 sec
Integral generation and half transformation done (  4.9 sec)

Reading or making V^(-1/2)          ... done (  0.3 sec)
Sorting IAK integrals               ... done (  4.7 sec)

SHARK RI integral transformation done. Total time = 10.0 sec.

Opening buffers                              ... done

Starting loop over batches of integrals:

Operator 0  - window                       ... (  0- 78)x( 79-1787)
Operator 0  - Memory available             ...  4096 MB
Operator 0  - Memory needed per MO         ...  54.3 MB
Operator 0  - Number of orbitals per batch ... 1
Operator 0  - Number of batches            ... 1

OPERATOR  0   PASS   0:  MOs     0 ...    0 +    1 ...    1 +    2 ...    2 +    3 ...    3
                            +    4 ...    4 +    5 ...    5 +    6 ...    6 +    7 ...    7
                            +    8 ...    8 +    9 ...    9 +   10 ...   10 +   11 ...   11
                            +   12 ...   12 +   13 ...   13 +   14 ...   14 +   15 ...   15
                            +   16 ...   16 +   17 ...   17 +   18 ...   18 +   19 ...   19
                            +   20 ...   20 +   21 ...   21 +   22 ...   22 +   23 ...   23
                            +   24 ...   24 +   25 ...   25 +   26 ...   26 +   27 ...   27
                            +   28 ...   28 +   29 ...   29 +   30 ...   30 +   31 ...   31
                            +   32 ...   32 +   33 ...   33 +   34 ...   34 +   35 ...   35
                            +   36 ...   36 +   37 ...   37 +   38 ...   38 +   39 ...   39
                            +   40 ...   40 +   41 ...   41 +   42 ...   42 +   43 ...   43
                            +   44 ...   44 +   45 ...   45 +   46 ...   46 +   47 ...   47
                            +   48 ...   48 +   49 ...   49 +   50 ...   50 +   51 ...   51
                            +   52 ...   52 +   53 ...   53 +   54 ...   54 +   55 ...   55
                            +   56 ...   56 +   57 ...   57 +   58 ...   58 +   59 ...   59
                            +   60 ...   60 +   61 ...   61 +   62 ...   62 +   63 ...   63
                            +   64 ...   64 +   65 ...   65 +   66 ...   66 +   67 ...   67
                            +   68 ...   68 +   69 ...   69 +   70 ...   70 +   71 ...   71
                            +   72 ...   72 +   73 ...   73 +   74 ...   74 +   75 ...   75
                            +   76 ...   76 +   77 ...   77 +   78 ...   78
  Reading integrals       ... ok
Time spent in pair loops =    39.160 sec

-----------------------------------------------
 RI-MP2 CORRELATION ENERGY:     -2.364209825 Eh
-----------------------------------------------


-------
TIMINGS
-------

Total time                :   52.077 sec
Integral trafo            :   10.283 sec ( 19.7%)
I/O of integrals          :    0.046 sec (  0.1%)
K(i,j) operators          :    0.417 sec (  0.8%)
T(i,j) pair energies      :    0.081 sec (  0.2%)
V**(-1/2)                 :    2.632 sec (  5.1%)


---------------------------------------
MP2 TOTAL ENERGY:     -921.935523556 Eh
---------------------------------------

Maximum memory used throughout the entire MP2-calculation: 403.3 MB


-------------------------------------------------------------------------------
                          DFT DISPERSION CORRECTION                            
                                                                               
                                DFTD4 V3.4.0                                   
-------------------------------------------------------------------------------
The REV-DSD-PBEP86-2021 functional is recognized
A user input s6-coefficient scaling factor has been recognized
A user input a1-coefficient scaling factor has been recognized
A user input s8-coefficient scaling factor has been recognized
A user input a2-coefficient scaling factor has been recognized
A user input s9-coefficient scaling factor has been recognized
Active option DFTDOPT                   ...         5   

-------------------------   ----------------
Dispersion correction           -0.038822346
-------------------------   ----------------


-------------------------   --------------------
FINAL SINGLE POINT ENERGY      -921.974345901681
-------------------------   --------------------



           ************************************************************
           *        Program running with 104 parallel MPI-processes   *
           *              working on a common directory               *
           ************************************************************

------------------------------------------------------------------------------
                              ORCA PROPERTY CALCULATIONS
------------------------------------------------------------------------------

GBWName                                 ... compas3x_hc_c24h14_0pent_1_qz_ri.gbw
Number of atoms                         ...     38
Number of basis functions               ...   1788
Max core memory                         ...   1024 MB

Electric properties:
Dipole moment                           ... YES
Quadrupole moment                       ...  NO
Static polarizability (Dipole/Dipole)   ...  NO
Static polarizability (Dipole/Quad.)    ...  NO
Static polarizability (Quad./Quad.)     ...  NO
Static polarizability (Velocity)        ...  NO

Atomic electric properties:
Dipole moment                           ...  NO
Quadrupole moment                       ...  NO
Static polarizability                   ...  NO

Choice of electric origin               ... Center of mass
Position of electric origin             ...    -0.000061    -0.000050     0.020429

General magnetic properties:
Magnetizability                         ...  NO

EPR properties:
g-Tensor (aka g-matrix)                 ...  NO
Zero-Field splitting spin-orbit         ...  NO
Zero-field splitting spin-spin          ...  NO
Hyperfine couplings                     ...  NO (   0 nuclei)
Quadrupole couplings                    ...  NO (   0 nuclei)
Contact density                         ...  NO (   0 nuclei)

NMR properties:
Chemical shifts                         ...  NO (   0 nuclei)
Spin-rotation constants                 ...  NO (   0 nuclei)
Spin-spin couplings                     ...  NO (   0 nuclei,    0 pairs)

Choice of magnetic origin               ... GIAO
Position of magnetic origin             ...     0.000000     0.000000     0.000000

Properties with geometric perturbations:
SCF Hessian                             ...  NO
IR spectrum                             ...  NO
VCD spectrum                            ...  NO
X-ray spectroscopy properties:
SCF XES/XAS/RIXS spectra                ...  NO


-------------
DIPOLE MOMENT
-------------

Method             : SCF
Type of density    : Electron Density
Multiplicity       :   1
Irrep              :   0
Energy             :  -919.5713137301555662 Eh
Relativity type    : 
Basis              : AO
                                X                 Y                 Z
Electronic contribution:     -0.000224366       0.000002143       0.405047265
Nuclear contribution   :      0.000235751      -0.000002897      -0.421743306
                        -----------------------------------------
Total Dipole Moment    :      0.000011386      -0.000000754      -0.016696041
                        -----------------------------------------
Magnitude (a.u.)       :      0.016696045
Magnitude (Debye)      :      0.042437973



--------------------
Rotational spectrum 
--------------------
 
Rotational constants in cm-1:             0.015922             0.006852             0.004860 
Rotational constants in MHz :           477.341652           205.425138           145.689010 

Dipole components along the rotational axes: 
x,y,z [a.u.] :    -0.000000     0.000002    -0.016696 
x,y,z [Debye]:    -0.000001     0.000005    -0.042438 

 

Dipole moment calculation done in   0.2 sec 

Maximum memory used throughout the entire PROP-calculation: 221.2 MB

--------------------------------
SUGGESTED CITATIONS FOR THIS RUN
--------------------------------

Below you find a list of papers that are relevant to this ORCA run
We neither can nor want to force you to cite these papers, but we appreciate if you do
You receive ORCA, which is the product of decades of hard work by many enthusiastic individuals, for free
The only thing we kindly ask in return is that you cite our papers,
We deeply appreciate it, if you show your appreciation for ORCA by not just citing the generic ORCA reference.

Please note that relegating all ORCA citations to the supporting information does *not* help us.
SI sections are not indexed - citations you put there will not count into any citation statistics
But we need these citations in order to attract the funding resources that allow us to do what we are doing

Therefore, if you are a happy ORCA user, please consider citing a few of the papers listed below in the main body of your paper

In addition to the list printed below, the program has created the file compas3x_hc_c24h14_0pent_1_qz_ri.bibtex that contains the list in bibtex format
You can import this file easily into all common literature databanks and citation aid programs


List of essential papers. We consider these as the minimum necessary citations

  1. Neese,F.
     Software update: the ORCA program system, version 5.0
     WIRES Comput. Molec. Sci., 2022 12(1)e1606
     doi.org/10.1002/wcms.1606

List of papers to cite with high priority. The work reported in these papers was absolutely
necessary for this run to complete.
Our perspective: the developers of density functionals and basis sets usually get cited in chemistry papers
Good! But without the algorithms to do something with them, the functionals or basis sets would not do anything.
Hence, in our opinion, the algorithm design and method developments papers are equally worthy of getting cited

  1. Neese,F.
     An improvement of the resolution of the identity approximation for the formation of the Coulomb matrix
     J. Comp. Chem., 2003 24(14)1740-1747
     doi.org/10.1002/jcc.10318
  2. Neese,F.; Wennmohs,F.; Hansen,A.; Becker,U.
     Efficient, approximate and parallel Hartree-Fock and hybrid DFT calculations. A 'chain-of-spheres' algorithm for the Hartree-Fock exchange
     Chem. Phys., 2009 356(1-3)98-109
     doi.org/10.1016/j.chemphys.2008.10.036
  3. Kossmann,S.; Neese,F.
     Efficient Structure Optimization with Second-Order Many-Body Perturbation Theory: The RIJCOSX-MP2 Method
     J. Theo. Comp. Chem., 2010 6 2325-2338
     doi.org/10.1021/ct100199k
  4. Helmich-Paris,B.; de Souza,B.; Neese,F.; Izsák,R.
     An improved chain of spheres for exchange algorithm
     J. Chem. Phys., 2021 155 104109
     doi.org/doi: 10.1063/5.0058766.
  5. Neese,F.
     The SHARK Integral Generation and Digestion System
     J. Comp. Chem., 2022  1-16
     doi.org/10.1002/jcc.26942
  6. Caldeweyher,E.; Bannwarth,C.; Grimme,S.
     Extension of the D3 dispersion coefficient model
     J. Chem. Phys., 2017 147 034112
     doi.org/10.1063/1.4993215
  7. Caldeweyher,E.; Ehlert,S.; Hansen,A.; Neugebauer,H.; Spicher,S.; Bannwarth,C.; Grimme,S.
     A generally applicable atomic-charge dependent London dispersion correction
     J. Chem. Phys., 2019 150 154122
     doi.org/10.1063/1.5090222
  8. Caldeweyher,E.; Mewes,J.; Ehlert,S.; Grimme,S.
     Extension and evaluation of the D4 London-dispersion model for periodic systems
     Phys. Chem. Chem. Phys., 2020 22(16)8499-8512
     doi.org/10.1039/D0CP00502A
  9. Wittmann,L.; Gordiy,I.; Friede,M.; Helmich-Paris,B.; Grimme,S.; Hansen,A.; Bursch,M.
     Extension of the D3 and D4 London Dispersion Corrections to the full Actinides Series
     Phys. Chem. Chem. Phys., 2024 26(32)21379-21394
     doi.org/https://doi.org/10.1039/D4CP01514B 

List of suggested additional citations. These are papers that are important in the 'surrounding' of 
of this run, or papers that preceded the highly important papers. If you like your results we are grateful for a citation.

  1. Izsak,R.; Neese,F.
     An overlap fitted chain of spheres exchange method
     J. Chem. Phys., 2011 135 144105
     doi.org/10.1063/1.3646921
  2. Izsak,R.; Hansen,A.; Neese,F.
     The resolution of identity and chain of spheres approximations for the LPNO-CCSD singles Fock term
     Molec. Phys., 2012 110 2413-2417
     doi.org/10.1080/00268976.2012.687466
  3. Neese,F.
     The ORCA program system
     WIRES Comput. Molec. Sci., 2012 2(1)73-78
     doi.org/10.1002/wcms.81
  4. Izsak,R.; Neese,F.; Klopper,W.
     Robust fitting techniques in the chain of spheres approximation to the Fock exchange: The role of the complementary space
     J. Chem. Phys., 2013 139 
     doi.org/10.1063/1.4819264
  5. Neese,F.
     Software update: the ORCA program system, version 4.0
     WIRES Comput. Molec. Sci., 2018 8(1)1-6
     doi.org/10.1002/wcms.1327
  6. Neese,F.; Wennmohs,F.; Becker,U.; Riplinger,C.
     The ORCA quantum chemistry program package
     J. Chem. Phys., 2020 152 Art. No. L224108
     doi.org/10.1063/5.0004608

List of optional additional citations

  1. Neese,F.
     Approximate second-order SCF convergence for spin unrestricted wavefunctions
     Chem. Phys. Lett., 2000 325(1-3)93-98
     doi.org/10.1016/s0009-2614(00)00662-x

Timings for individual modules:

Sum of individual times          ...      275.710 sec (=   4.595 min)
Startup calculation              ...       30.901 sec (=   0.515 min)  11.2 %
SCF iterations                   ...      151.701 sec (=   2.528 min)  55.0 %
Property calculations            ...       23.625 sec (=   0.394 min)   8.6 %
MP2 module                       ...       69.483 sec (=   1.158 min)  25.2 %
                             ****ORCA TERMINATED NORMALLY****
TOTAL RUN TIME: 0 days 0 hours 5 minutes 2 seconds 468 msec
