
                                 *****************
                                 * O   R   C   A *
                                 *****************

                                            #,                                       
                                            ###                                      
                                            ####                                     
                                            #####                                    
                                            ######                                   
                                           ########,                                 
                                     ,,################,,,,,                         
                               ,,#################################,,                 
                          ,,##########################################,,             
                       ,#########################################, ''#####,          
                    ,#############################################,,   '####,        
                  ,##################################################,,,,####,       
                ,###########''''           ''''###############################       
              ,#####''   ,,,,##########,,,,          '''####'''          '####       
            ,##' ,,,,###########################,,,                        '##       
           ' ,,###''''                  '''############,,,                           
         ,,##''                                '''############,,,,        ,,,,,,###''
      ,#''                                            '''#######################'''  
     '                                                          ''''####''''         
             ,#######,   #######,   ,#######,      ##                                
            ,#'     '#,  ##    ##  ,#'     '#,    #''#        ,####,   ,####,        
            ##       ##  ##   ,#'  ##            #'  '#       #'       #'  '#        
            ##       ##  #######   ##           ,######,      #####,   #    #        
            '#,     ,#'  ##    ##  '#,     ,#' ,#      #,     #,   #   #,  ,#        
             '#######'   ##     ##  '#######'  #'      '#     '####' # '####'        



                #########################################################
                #                        -***-                          #
                #          Department of theory and spectroscopy        #
                #                                                       #
                #                      Frank Neese                      #
                #                                                       #
                #     Directorship, Architecture, Infrastructure        #
                #                    SHARK, DRIVERS                     #
                #        Core code/Algorithms in most modules           #
                #                                                       #
                #        Max Planck Institute fuer Kohlenforschung      #
                #                Kaiser Wilhelm Platz 1                 #
                #                 D-45470 Muelheim/Ruhr                 #
                #                      Germany                          #
                #                                                       #
                #                  All rights reserved                  #
                #                        -***-                          #
                #########################################################


                         Program Version 6.0.1  -  RELEASE   -


 With contributions from (in alphabetic order):
[Max-Planck-Institut fuer Kohlenforschung]                               
  Daniel Aravena         : Magnetic Suceptibility                        
  Michael Atanasov       : Ab Initio Ligand Field Theory (pilot matlab implementation)
  Alexander A. Auer      : GIAO ZORA, VPT2 properties, NMR spectrum      
  Ute Becker             : All parallelization in ORCA, NUMFREQ, NUMCALC 
  Giovanni Bistoni       : ED, misc. LED, open-shell LED, HFLD           
  Martin Brehm           : Molecular dynamics                            
  Dmytro Bykov           : pre 5.0 version of the SCF Hessian            
  Marcos Casanova-Páez   : Triplet and SCS-CIS(D). UHF-(DLPNO)-IP/EA/STEOM-CCSD. UHF-CVS-IP/STEOM-CCSD   
  Vijay G. Chilkuri      : MRCI spin determinant printing, contributions to CSF-ICE 
  Pauline Colinet        : FMM embedding                                 
  Dipayan Datta          : RHF DLPNO-CCSD density                        
  Achintya Kumar Dutta   : EOM-CC, STEOM-CC                              
  Nicolas Foglia         : Exact transition moments, OPA infrastructure, MCD improvements    
  Dmitry Ganyushin       : Spin-Orbit,Spin-Spin,Magnetic field MRCI      
  Miquel Garcia-Rates    : C-PCM and meta-GGA Hessian, CCSD/C-PCM, Gaussian charge scheme 
  Tiago L. C. Gouveia    : GS-ROHF, GS-ROCIS                             
  Yang Guo               : DLPNO-NEVPT2, F12-NEVPT2, CIM, IAO-localization        
  Andreas Hansen         : Spin unrestricted coupled pair/coupled cluster methods 
  Ingolf Harden          : AUTO-CI MPn and infrastructure                
  Benjamin Helmich-Paris : MC-RPA, TRAH-(SCF,CASSCF), AVAS, COSX integrals, SCF dyn. polar. 
  Lee Huntington         : MR-EOM, pCC                                   
  Robert Izsak           : Overlap fitted RIJCOSX, COSX-SCS-MP3, EOM     
  Riya Kayal             : Wick's Theorem for AUTO-CI, AUTO-CI UHF-CCSDT 
  Emily Kempfer          : AUTO-CI, RHF CISDT and CCSDT                  
  Christian Kollmar      : KDIIS, OOCD, Brueckner-CCSD(T), CCSD density, CASPT2, CASPT2-K, improved NEVPT2 
  Axel Koslowski         : Symmetry handling                             
  Simone Kossmann        : meta-GGA functionals, TD-DFT gradient, OOMP2, (MP2 Hessian; deprecated post 5.0) 
  Lucas Lang             : DCDCAS                                        
  Marvin Lechner         : AUTO-CI (C++ implementation), FIC-MRCC        
  Spencer Leger          : CASSCF response                               
  Dagmar Lenk            : GEPOL surface, SMD, ORCA-2-JSON               
  Dimitrios Liakos       : Extrapolation schemes; Compound Job, initial MDCI parallelization 
  Dimitrios Manganas     : Further ROCIS development; embedding schemes. LFT, Crystal Embedding 
  Dimitrios Pantazis     : SARC Basis sets                               
  Anastasios Papadopoulos: AUTO-CI, single reference methods and gradients 
  Taras Petrenko         : pre 6.0 DFT Hessian and TD-DFT gradient, (ASA, deprecated), ECA, 1-Electron XAS/XES, NRVS 
  Peter Pinski           : DLPNO-MP2, DLPNO-MP2 Gradient                 
  Christoph Reimann      : Effective Core Potentials                     
  Marius Retegan         : Local ZFS, SOC                                
  Christoph Riplinger    : Optimizer, TS searches, QM/MM, DLPNO-CCSD(T), (RO)-DLPNO pert. Triples 
  Michael Roemelt        : Original ROCIS implementation                 
  Masaaki Saitow         : Open-shell DLPNO-CCSD energy and density      
  Barbara Sandhoefer     : DKH picture change effects                    
  Kantharuban Sivalingam : CASSCF convergence/infrastructure, NEVPT2 and variants, FIC-MRCI 
  Bernardo de Souza      : ESD, SOC TD-DFT                               
  Georgi L. Stoychev     : AutoAux, RI-MP2 NMR, DLPNO-MP2 response, X2C  
  Van Anh Tran           : RI-MP2 g-tensors                              
  Willem Van den Heuvel  : Paramagnetic NMR                              
  Zikuan Wang            : NOTCH, Electric field optimization            
  Frank Wennmohs         : Technical directorship and infrastructure     
  Hang Xu                : AUTO-CI-Response properties                   
                                                                         
[FACCTs GmbH]                                                            
  Markus Bursch, Miquel Garcia-Rates, Christoph Riplinger, Bernardo de Souza, Georgi L. Stoychev 
                                                                 
  APM, Basis sets (HGBS, AHGBS, def-TZVP (Ac-Lr), def2-XVPD (La-Lu)), CI-OPT, improved COSX, DLPNO-Multilevel,           
  DOCKER, DRACO, updates on ESD, GOAT, IRC, LR-CPCM, MBIS, meta-GGA TD-DFT gradient, ML-optimized integration grids, 
  MM, NACMEs, nearIR, NEB, NEB-TS, NL-DFT gradient (VV10), 2- and 3-layer-ONIOM, interface openCOSMO-RS, QMMM,   
  Crystal-QMMM, SF, symmetry and pop. for TD-DFT, r2SCAN hybrids, SOLVATOR                                   
                                                                         
[Other institutions]                                                     
  V. Asgeirsson          : NEB                                           
  Christoph Bannwarth    : sTDA-DFT, sTD-DFT, PBEh-3c, B97-3c, D3        
  Sebastian Ehlert       : rSCAN, r2SCAN, r2SCAN-3c, D4, dhf basis sets  
  Marvin Friede          : D4 for Fr, Ra, Ac-Lr                          
  Lars Goerigk           : TD-DFT with DH, B97 family of functionals     
  Stefan Grimme          : VdW corrections, initial TS optimization, DFT functionals, gCP, sTDA/sTD-DF 
  Waldemar Hujo          : DFT-NL                                        
  H. Jonsson             : NEB                                           
  Holger Kruse           : gCP                                           
  Marcel Mueller         : wB97X-3c, vDZP basis set                      
  Hagen Neugebauer       : wr2SCAN                                       
  Tobias Risthaus        : range-separated hybrid DFT                    
  Lukas Wittmann         : regularized MP2, r2SCAN double-hybrids, wr2SCAN        
                                                                         
We gratefully acknowledge several colleagues who have allowed us to      
interface, adapt or use parts of their codes:                            
  Ed Valeev, F. Pavosevic, A. Kumar             : LibInt (2-el integral package), F12 methods 
  Garnet Chan, S. Sharma, J. Yang, R. Olivares  : DMRG                   
  Ulf Ekstrom                                   : XCFun DFT Library      
  Mihaly Kallay                                 : mrcc  (arbitrary order and MRCC methods)
  Frank Weinhold                                : gennbo (NPA and NBO analysis)           
  Simon Mueller                                 : openCOSMO-RS                            
  Christopher J. Cramer and Donald G. Truhlar   : smd solvation model                     
  S Lehtola, MJT Oliveira, MAL Marques          : LibXC Library                           
  Liviu Ungur et al                             : ANISO software                          


 Your calculation uses the libint2 library for the computation of 2-el integrals
 For citations please refer to: http://libint.valeyev.net

 Your ORCA version has been built with support for libXC version: 6.2.2
 For citations please refer to: https://libxc.gitlab.io

 This ORCA versions uses:
   CBLAS   interface :  Fast vector & matrix operations
   LAPACKE interface :  Fast linear algebra routines
   SCALAPACK package :  Parallel linear algebra routines
   Shared memory     :  Shared parallel matrices
   BLAS/LAPACK       :  OpenBLAS 0.3.27  USE64BITINT DYNAMIC_ARCH NO_AFFINITY SapphireRapids SINGLE_THREADED
        Core in use  :  SapphireRapids
   Copyright (c) 2011-2014, The OpenBLAS Project




***************************************
The coordinates will be read from file: /scratch/kx58/rs2200/dhdft/inputs/compas3x-xyzs/hc_c24h14_0pent_7.xyz
***************************************


Your calculation utilizes the atom-pairwise dispersion correction
based on EEQ partial charges (D4)


================================================================================

----- Orbital basis set information -----
Your calculation utilizes the basis: def2-QZVPP
   F. Weigend and R. Ahlrichs, Phys. Chem. Chem. Phys. 7, 3297 (2005).

================================================================================
                                        WARNINGS
                       Please study these warnings very carefully!
================================================================================


WARNING: No MP2 level density has been requested!
         To calculate MP2 level properties use
         %mp2 Density relaxed end
         or
         %mp2 Density unrelaxed end
         Otherwise for double-hybrid DFT only the energy is correct!

================================================================================
                                       INPUT FILE
================================================================================
NAME = compas3x_hc_c24h14_0pent_7_qz_nori.inp
|  1> ! RKS revDSD-PBEP86-D4/2021 defgrid3  NORI NOPOP NoFrozencore NoUseSym
|  2> 
|  3> %basis
|  4> Basis "def2-QZVPP"
|  5> 
|  6> 
|  7> end
|  8> 
|  9> %method
| 10> ScalHFX 0.69
| 11> ScalDFX 0.31
| 12> ScalDFC 0.4038
| 13> ScalLDAC 0.4038
| 14> 
| 15> D4S6 0.4612
| 16> D4S8 0.0
| 17> D4A1 0.44
| 18> D4A2 3.60
| 19> end
| 20> 
| 21> %mp2
| 22> PS 0.5979
| 23> PT 0.0571
| 24> MaxCore 45000
| 25> Q1Opt 1
| 26> 
| 27> end
| 28> 
| 29> %pal
| 30> nprocs 10
| 31> end
| 32> 
| 33> *XYZFILE 0 1 /scratch/kx58/rs2200/dhdft/inputs/compas3x-xyzs/hc_c24h14_0pent_7.xyz
| 34> 
| 35>                          ****END OF INPUT****
================================================================================

                       ****************************
                       * Single Point Calculation *
                       ****************************

---------------------------------
CARTESIAN COORDINATES (ANGSTROEM)
---------------------------------
  C      0.853632    0.857442    0.009456
  C     -0.509270    1.227043   -0.002885
  C     -0.894439    2.590747   -0.003807
  C      0.090347    3.606582    0.010897
  C      1.454510    3.213869    0.027228
  C      1.815859    1.906530    0.025946
  C      1.209923   -0.523242    0.006081
  C      0.194732   -1.516253    0.000518
  C     -1.143557   -1.111516   -0.011063
  C     -1.514101    0.221604   -0.015355
  C     -2.887759    0.612884   -0.031211
  C     -3.248315    1.914229   -0.033728
  C     -2.265872    2.950442   -0.019614
  C     -2.615881    4.298858   -0.021084
  C     -1.642932    5.285191   -0.006521
  C     -0.305155    4.948136    0.009581
  C      2.568311   -0.943391    0.005018
  C      2.911517   -2.253061    0.001261
  C      1.925843   -3.275156    0.003101
  C      0.558414   -2.916021    0.004540
  C      2.298845   -4.628972    0.004497
  C      1.351706   -5.619163    0.009476
  C     -0.000211   -5.274421    0.013819
  C     -0.385368   -3.956155    0.011118
  H      2.209338    3.987717    0.040886
  H      2.866964    1.666736    0.039763
  H     -1.933206   -1.846212   -0.019419
  H     -3.635394   -0.168022   -0.041433
  H     -4.290342    2.201400   -0.046140
  H     -3.661659    4.571430   -0.033751
  H     -1.935821    6.325268   -0.007822
  H      0.451843    5.719294    0.021150
  H      3.353379   -0.204757    0.004222
  H      3.951867   -2.546581   -0.002087
  H      3.351316   -4.875475    0.002249
  H      1.643344   -6.659084    0.010735
  H     -0.749785   -6.052442    0.019530
  H     -1.440624   -3.734476    0.015847

----------------------------
CARTESIAN COORDINATES (A.U.)
----------------------------
  NO LB      ZA    FRAG     MASS         X           Y           Z
   0 C     6.0000    0    12.011    1.613130    1.620331    0.017868
   1 C     6.0000    0    12.011   -0.962381    2.318775   -0.005452
   2 C     6.0000    0    12.011   -1.690244    4.895802   -0.007194
   3 C     6.0000    0    12.011    0.170731    6.815452    0.020593
   4 C     6.0000    0    12.011    2.748625    6.073333    0.051454
   5 C     6.0000    0    12.011    3.431476    3.602819    0.049031
   6 C     6.0000    0    12.011    2.286424   -0.988785    0.011491
   7 C     6.0000    0    12.011    0.367990   -2.865303    0.000979
   8 C     6.0000    0    12.011   -2.161009   -2.100462   -0.020907
   9 C     6.0000    0    12.011   -2.861236    0.418771   -0.029017
  10 C     6.0000    0    12.011   -5.457074    1.158183   -0.058979
  11 C     6.0000    0    12.011   -6.138427    3.617369   -0.063737
  12 C     6.0000    0    12.011   -4.281878    5.575527   -0.037066
  13 C     6.0000    0    12.011   -4.943299    8.123663   -0.039843
  14 C     6.0000    0    12.011   -3.104691    9.987563   -0.012323
  15 C     6.0000    0    12.011   -0.576658    9.350622    0.018106
  16 C     6.0000    0    12.011    4.853403   -1.782751    0.009483
  17 C     6.0000    0    12.011    5.501969   -4.257669    0.002382
  18 C     6.0000    0    12.011    3.639317   -6.189149    0.005861
  19 C     6.0000    0    12.011    1.055250   -5.510482    0.008580
  20 C     6.0000    0    12.011    4.344187   -8.747490    0.008498
  21 C     6.0000    0    12.011    2.554355  -10.618678    0.017907
  22 C     6.0000    0    12.011   -0.000399   -9.967211    0.026115
  23 C     6.0000    0    12.011   -0.728240   -7.476049    0.021011
  24 H     1.0000    0     1.008    4.175043    7.535692    0.077263
  25 H     1.0000    0     1.008    5.417777    3.149675    0.075141
  26 H     1.0000    0     1.008   -3.653229   -3.488835   -0.036696
  27 H     1.0000    0     1.008   -6.869899   -0.317516   -0.078297
  28 H     1.0000    0     1.008   -8.107571    4.160043   -0.087193
  29 H     1.0000    0     1.008   -6.919534    8.638751   -0.063781
  30 H     1.0000    0     1.008   -3.658171   11.953025   -0.014782
  31 H     1.0000    0     1.008    0.853860   10.807899    0.039967
  32 H     1.0000    0     1.008    6.336968   -0.386935    0.007979
  33 H     1.0000    0     1.008    7.467947   -4.812341   -0.003943
  34 H     1.0000    0     1.008    6.333070   -9.213312    0.004250
  35 H     1.0000    0     1.008    3.105471  -12.583846    0.020286
  36 H     1.0000    0     1.008   -1.416889  -11.437457    0.036906
  37 H     1.0000    0     1.008   -2.722385   -7.057137    0.029946

--------------------------------
INTERNAL COORDINATES (ANGSTROEM)
--------------------------------
 C      0   0   0     0.000000000000     0.00000000     0.00000000
 C      1   0   0     1.412181739560     0.00000000     0.00000000
 C      2   1   0     1.417055000697   120.94393361     0.00000000
 C      3   2   1     1.414898949746   120.11494646   359.85147727
 C      4   3   2     1.419658550871   118.05498339   359.95892296
 C      5   4   3     1.356359550849   121.50769621     0.14409762
 C      1   2   3     1.425919334530   119.63997043   180.18418845
 C      7   1   2     1.420110836899   119.89769585   359.52766279
 C      8   7   1     1.398199765525   118.80680926     0.44558705
 C      9   8   7     1.383666104184   122.36052926   359.90480960
 C     10   9   8     1.428386478177   121.43272876   179.81246495
 C     11  10   9     1.350372677366   121.38467279   179.91756466
 C      3   2   1     1.417906955714   120.46666119   179.84226688
 C     13   3   2     1.393102131933   119.24625466   180.04414572
 C     14  13   3     1.385530926918   120.83755872   359.96076251
 C     15  14  13     1.379678688671   120.47120525     0.00000000
 C      7   1   2     1.421879500549   121.65658424   179.38006406
 C     17   7   1     1.353898426149   121.87127483   180.02772061
 C     18  17   7     1.419941247311   121.35439230   359.76768231
 C     19  18  17     1.413804125044   119.24523047     0.20620187
 C     19  18  17     1.404261273773   120.63542886   180.25367374
 C     21  19  18     1.370245732734   120.86914665   179.84408999
 C     22  21  19     1.395186797119   119.42168452   359.97071193
 C     23  22  21     1.373382285475   120.59176835     0.09793838
 H      5   4   3     1.081106830873   118.23218561   180.14424016
 H      6   5   4     1.078199558802   118.29867957   180.05681503
 H      9   8   7     1.078606971381   120.23994047   179.75804666
 H     11  10   9     1.081146000931   117.85731630   359.90379178
 H     12  11  10     1.080943788232   120.89287697   179.97705665
 H     14  13   3     1.080790541478   119.15836759   179.96299236
 H     15  14  13     1.080530924361   119.66133852   180.00758188
 H     16  15  14     1.080677537657   120.33178841   180.01406237
 H     17   7   1     1.077920519752   119.55874755   359.84271214
 H     18  17   7     1.080969493961   120.44037843   179.83919983
 H     21  19  18     1.080955264234   118.58546571   359.88585423
 H     22  21  19     1.080042360430   120.60730196   180.01255033
 H     23  22  21     1.080375280199   119.62796353   180.10855882
 H     24  23  22     1.078299185767   118.14948519   180.07141651

---------------------------
INTERNAL COORDINATES (A.U.)
---------------------------
 C      0   0   0     0.000000000000     0.00000000     0.00000000
 C      1   0   0     2.668636739094     0.00000000     0.00000000
 C      2   1   0     2.677845868020   120.94393361     0.00000000
 C      3   2   1     2.673771522193   120.11494646   359.85147727
 C      4   3   2     2.682765864826   118.05498339   359.95892296
 C      5   4   3     2.563148090232   121.50769621     0.14409762
 C      1   2   3     2.694597031324   119.63997043   180.18418845
 C      7   1   2     2.683620561553   119.89769585   359.52766279
 C      8   7   1     2.642214637355   118.80680926     0.44558705
 C      9   8   7     2.614749997698   122.36052926   359.90480960
 C     10   9   8     2.699259257152   121.43272876   179.81246495
 C     11  10   9     2.551834538952   121.38467279   179.91756466
 C      3   2   1     2.679455829682   120.46666119   179.84226688
 C     13   3   2     2.632581505935   119.24625466   180.04414572
 C     14  13   3     2.618274001953   120.83755872   359.96076251
 C     15  14  13     2.607214874395   120.47120525     0.00000000
 C      7   1   2     2.686962851475   121.65658424   179.38006406
 C     17   7   1     2.558497238568   121.87127483   180.02772061
 C     18  17   7     2.683300083677   121.35439230   359.76768231
 C     19  18  17     2.671702603341   119.24523047     0.20620187
 C     19  18  17     2.653669227902   120.63542886   180.25367374
 C     21  19  18     2.589389171041   120.86914665   179.84408999
 C     22  21  19     2.636520952217   119.42168452   359.97071193
 C     23  22  21     2.595316396726   120.59176835     0.09793838
 H      5   4   3     2.042995831862   118.23218561   180.14424016
 H      6   5   4     2.037501883851   118.29867957   180.05681503
 H      9   8   7     2.038271782049   120.23994047   179.75804666
 H     11  10   9     2.043069852543   117.85731630   359.90379178
 H     12  11  10     2.042687725921   120.89287697   179.97705665
 H     14  13   3     2.042398131527   119.15836759   179.96299236
 H     15  14  13     2.041907526275   119.66133852   180.00758188
 H     16  15  14     2.042184585252   120.33178841   180.01406237
 H     17   7   1     2.036974576466   119.55874755   359.84271214
 H     18  17   7     2.042736302709   120.44037843   179.83919983
 H     21  19  18     2.042709412422   118.58546571   359.88585423
 H     22  21  19     2.040984274247   120.60730196   180.01255033
 H     23  22  21     2.041613401434   119.62796353   180.10855882
 H     24  23  22     2.037690151529   118.14948519   180.07141651

---------------------
BASIS SET INFORMATION
---------------------
There are 2 groups of distinct atoms

 Group   1 Type C   : 15s8p3d2f1g contracted to 7s4p3d2f1g pattern {8211111/5111/111/11/1}
 Group   2 Type H   : 7s3p2d1f contracted to 4s3p2d1f pattern {4111/111/11/1}

Atom   0C    basis set group =>   1
Atom   1C    basis set group =>   1
Atom   2C    basis set group =>   1
Atom   3C    basis set group =>   1
Atom   4C    basis set group =>   1
Atom   5C    basis set group =>   1
Atom   6C    basis set group =>   1
Atom   7C    basis set group =>   1
Atom   8C    basis set group =>   1
Atom   9C    basis set group =>   1
Atom  10C    basis set group =>   1
Atom  11C    basis set group =>   1
Atom  12C    basis set group =>   1
Atom  13C    basis set group =>   1
Atom  14C    basis set group =>   1
Atom  15C    basis set group =>   1
Atom  16C    basis set group =>   1
Atom  17C    basis set group =>   1
Atom  18C    basis set group =>   1
Atom  19C    basis set group =>   1
Atom  20C    basis set group =>   1
Atom  21C    basis set group =>   1
Atom  22C    basis set group =>   1
Atom  23C    basis set group =>   1
Atom  24H    basis set group =>   2
Atom  25H    basis set group =>   2
Atom  26H    basis set group =>   2
Atom  27H    basis set group =>   2
Atom  28H    basis set group =>   2
Atom  29H    basis set group =>   2
Atom  30H    basis set group =>   2
Atom  31H    basis set group =>   2
Atom  32H    basis set group =>   2
Atom  33H    basis set group =>   2
Atom  34H    basis set group =>   2
Atom  35H    basis set group =>   2
Atom  36H    basis set group =>   2
Atom  37H    basis set group =>   2


           ************************************************************
           *        Program running with 10 parallel MPI-processes    *
           *              working on a common directory               *
           ************************************************************
------------------------------------------------------------------------------
                             ORCA STARTUP CALCULATIONS
------------------------------------------------------------------------------
------------------------------------------------------------------------------
                   ___                                                        
                  /   \      - P O W E R E D   B Y -                         
                 /     \                                                     
                 |  |  |   _    _      __       _____    __    __             
                 |  |  |  | |  | |    /  \     |  _  \  |  |  /  |          
                  \  \/   | |  | |   /    \    | | | |  |  | /  /          
                 / \  \   | |__| |  /  /\  \   | |_| |  |  |/  /          
                |  |  |   |  __  | /  /__\  \  |    /   |      \           
                |  |  |   | |  | | |   __   |  |    \   |  |\   \          
                \     /   | |  | | |  |  |  |  | |\  \  |  | \   \       
                 \___/    |_|  |_| |__|  |__|  |_| \__\ |__|  \__/        
                                                                              
                      - O R C A' S   B I G   F R I E N D -                    
                                      &                                       
                       - I N T E G R A L  F E E D E R -                       
                                                                              
 v1 FN, 2020, v2 2021, v3 2022-2024                                           
------------------------------------------------------------------------------


----------------------
SHARK INTEGRAL PACKAGE
----------------------

Number of atoms                             ...     38
Number of basis functions                   ...   1788
Number of shells                            ...    548
Maximum angular momentum                    ...      4
Integral batch strategy                     ... SHARK/LIBINT Hybrid
RI-J (if used) integral strategy            ... SPLIT-RIJ (Revised 2003 algorithm where possible)
Printlevel                                  ...      1
Contraction scheme used                     ... SEGMENTED contraction
Prescreening option                         ... SCHWARTZ
   Thresh                                   ... 1.000e-10
   Tcut                                     ... 1.000e-11
   Tpresel                                  ... 1.000e-11 
Coulomb Range Separation                    ... NOT USED
Exchange Range Separation                   ... NOT USED
Multipole approximations                    ... NOT USED
Finite Nucleus Model                        ... NOT USED
CABS basis                                  ... NOT available
Auxiliary Coulomb fitting basis             ... NOT available
Auxiliary J/K fitting basis                 ... NOT available
Auxiliary Correlation fitting basis         ... NOT available
Auxiliary 'external' fitting basis          ... NOT available

Checking pre-screening integrals            ... done (  0.0 sec) Dimension = 548
Check shell pair data                       ... done (  0.0 sec)
Shell pair information
Shell pair cut-off parameter TPreSel        ...   1.0e-11
Total number of shell pairs                 ...    150426
Shell pairs after pre-screening             ...     88374
Total number of primitive shell pairs       ...    386901
Primitive shell pairs kept                  ...    157356
          la=0 lb=0:  13414 shell pairs
          la=1 lb=0:  19828 shell pairs
          la=1 lb=1:   6921 shell pairs
          la=2 lb=0:  12124 shell pairs
          la=2 lb=1:   8967 shell pairs
          la=2 lb=2:   2881 shell pairs
          la=3 lb=0:   7257 shell pairs
          la=3 lb=1:   5398 shell pairs
          la=3 lb=2:   3275 shell pairs
          la=3 lb=3:   1016 shell pairs
          la=4 lb=0:   2879 shell pairs
          la=4 lb=1:   2130 shell pairs
          la=4 lb=2:   1329 shell pairs
          la=4 lb=3:    782 shell pairs
          la=4 lb=4:    173 shell pairs

Calculating one electron integrals          ... done (  0.2 sec)
Calculating Nuclear repulsion               ... done (  0.0 sec) ENN=   1785.218947893504 Eh

Diagonalization of the overlap matrix:
Smallest eigenvalue                        ... 8.934e-07
Time for diagonalization                   ...    0.306 sec
Threshold for overlap eigenvalues          ... 1.000e-07
Number of eigenvalues below threshold      ... 0

IMPORTANT:
Smallest eigenvalue of S below the DiffSThresh (1.000e-06) while
Thresh>1e-12 and/or TCut>1e-13! In order to avoid SCF convergence issues,
Thresh will be set to at least 1e-12 and TCut to at least 1e-13.
This can be turned off by adding %SCF DiffSThresh -1 END to the input.

Time for construction of square roots      ...    0.438 sec
Total time needed                          ...    0.765 sec

-------------------
DFT GRID GENERATION
-------------------

General Integration Accuracy     IntAcc      ... 4.959
Radial Grid Type                 RadialGrid  ... OptM3 with GC (2021)
Angular Grid (max. ang.)         AngularGrid ... 6 (Lebedev-590)
Angular grid pruning method      GridPruning ... 4 (adaptive)
Weight generation scheme         WeightScheme... mBecke (2022)
Basis function cutoff            BFCut       ... 1.0000e-10
Integration weight cutoff        WCut        ... 1.0000e-14
Partially contracted basis set               ... off
Rotationally invariant grid construction     ... off
Angular grids for H and He will be reduced by one unit
Diffuse basis detected: some atoms will have their outermost
                        angular grid increased by 1.

Total number of grid points                  ...   467999
Total number of batches                      ...     7333
Average number of points per batch           ...       63
Average number of grid points per atom       ...    12316
Initializing property integral containers    ... done (  0.0 sec)

SHARK setup successfully completed in   7.0 seconds

Maximum memory used throughout the entire STARTUP-calculation: 220.8 MB


           ************************************************************
           *        Program running with 10 parallel MPI-processes    *
           *              working on a common directory               *
           ************************************************************
-------------------------------------------------------------------------------
                                 ORCA GUESS
                   Start orbitals & Density for SCF / CASSCF
-------------------------------------------------------------------------------

------------
SCF SETTINGS
------------
Hamiltonian:
 Density Functional     Method          .... DFT(GTOs)
 Exchange Functional    Exchange        .... PBE
   PBE kappa parameter   XKappa         ....  0.804000
   PBE mue parameter    XMuePBE         ....  0.219520
 Correlation Functional Correlation     .... P86
 LDA part of GGA corr.  LDAOpt          .... VWN-5
 Gradients option       PostSCFGGA      .... off
 Hybrid DFT is turned on
   Fraction HF Exchange ScalHFX         ....  0.690000
   Scaling of DF-GGA-X  ScalDFX         ....  0.310000
   Scaling of DF-GGA-C  ScalDFC         ....  0.403800
   Scaling of DF-LDA-C  ScalLDAC        ....  0.403800
   Perturbative correction              ....  1.000000


General Settings:
 Integral files         IntName         .... compas3x_hc_c24h14_0pent_7_qz_nori
 Hartree-Fock type      HFTyp           .... RHF
 Total Charge           Charge          ....    0
 Multiplicity           Mult            ....    1
 Number of Electrons    NEL             ....  158
 Basis Dimension        Dim             .... 1788
 Nuclear Repulsion      ENuc            ....   1785.2189478935 Eh

Convergence Acceleration:
 AO-DIIS                CNVDIIS         .... on
   Start iteration      DIISMaxIt       ....    12
   Startup error        DIISStart       ....  0.200000
   # of expansion vecs  DIISMaxEq       ....     5
   Bias factor          DIISBfac        ....   1.050
   Max. coefficient     DIISMaxC        ....  10.000
 MO-DIIS                CNVKDIIS        .... off
 Trust-Rad. Augm. Hess. CNVTRAH         .... auto
   Auto Start mean grad. ratio tolernc. ....  1.125000
   Auto Start start iteration           ....    50
   Auto Start num. interpolation iter.  ....    10
   Max. Number of Micro iterations      ....    24
   Max. Number of Macro iterations      .... Maxiter - #DIIS iter
   Number of Davidson start vectors     ....     2
   Converg. threshold    (grad. norm)   ....   5.000e-05
   Grad. Scal. Fac. for Micro threshold ....   0.100
   Minimum threshold for Micro iter.    ....   1.000e-02
   NR start threshold (gradient norm)   ....   1.000e-04
   Initial trust radius                 ....   0.400
   Minimum AH scaling param. (alpha)    ....   1.000
   Maximum AH scaling param. (alpha)    .... 1000.000
   Quad. conv. algorithm                .... NR
   White noise on init. David. guess    .... on
   Maximum white noise                  ....   0.010
   Pseudo random numbers                .... off
   Inactive MOs                         .... canonical
   Orbital update algorithm             .... Taylor
   Preconditioner                       .... Diag
   Full preconditioner red. dimension   ....   250
 SOSCF                  CNVSOSCF        .... on
   Start iteration      SOSCFMaxIt      ....   150
   Startup grad/error   SOSCFStart      ....  0.003300
   Hessian update       SOSCFHessUp     .... L-BFGS
 Level Shifting         CNVShift        .... on
   Level shift para.    LevelShift      ....    0.2500
   Turn off err/grad.   ShiftErr        ....    0.0010
 Zerner damping         CNVZerner       .... off
 Static damping         CNVDamp         .... on
   Fraction old density DampFac         ....    0.7000
   Max. Damping (<1)    DampMax         ....    0.9800
   Min. Damping (>=0)   DampMin         ....    0.0000
   Turn off err/grad.   DampErr         ....    0.1000

SCF Procedure:
 Maximum # iterations   MaxIter         ....   125
 SCF integral mode      SCFMode         .... Direct
   Integral package                     .... SHARK and LIBINT hybrid scheme
 Reset frequency        DirectResetFreq ....    20
 Integral Threshold     Thresh          ....  1.000e-12 Eh
 Primitive CutOff       TCut            ....  1.000e-13 Eh

Convergence Tolerance:
 Convergence Check Mode ConvCheckMode   .... Total+1el-Energy
 Convergence forced     ConvForced      .... 0
 Energy Change          TolE            ....  1.000e-06 Eh
 1-El. energy change                    ....  1.000e-03 Eh
 Orbital Gradient       TolG            ....  5.000e-05
 Orbital Rotation angle TolX            ....  5.000e-05
 DIIS Error             TolErr          ....  1.000e-06

------------------------------
INITIAL GUESS: MODEL POTENTIAL
------------------------------
Loading Hartree-Fock densities                     ... done
Calculating cut-offs                               ... done
Initializing the effective Hamiltonian             ... done
Setting up the integral package (SHARK)            ... done
Starting the Coulomb interaction                   ... done (   0.6 sec)
Making the grid                                    ... done (   0.3 sec)
Mapping shells                                     ... done
Starting the XC term evaluation                    ... done (   0.5 sec)
  promolecular density results
     # of electrons  =    158.024368801
     EX              =   -127.053672266
     EC              =      0.200439287
     EX+EC           =   -126.853232980
Transforming the Hamiltonian                       ... done (   0.2 sec)
Diagonalizing the Hamiltonian                      ... done (   0.3 sec)
Back transforming the eigenvectors                 ... done (   0.1 sec)
Now organizing SCF variables                       ... done
                      ------------------
                      INITIAL GUESS DONE (   2.2 sec)
                      ------------------
             **** ENERGY FILE WAS UPDATED (compas3x_hc_c24h14_0pent_7_qz_nori.en.tmp) ****
Finished Guess after   4.9 sec
Maximum memory used throughout the entire GUESS-calculation: 222.1 MB


           ************************************************************
           *        Program running with 10 parallel MPI-processes    *
           *              working on a common directory               *
           ************************************************************

-------------------------------------------------------------------------------------------
                                      ORCA LEAN-SCF
                              memory conserving SCF solver
-------------------------------------------------------------------------------------------

----------------------------------------D-I-I-S--------------------------------------------
Iteration    Energy (Eh)           Delta-E    RMSDP     MaxDP     DIISErr   Damp  Time(sec)
-------------------------------------------------------------------------------------------
               ***  Starting incremental Fock matrix formation  ***
