
                                 *****************
                                 * O   R   C   A *
                                 *****************

                                            #,                                       
                                            ###                                      
                                            ####                                     
                                            #####                                    
                                            ######                                   
                                           ########,                                 
                                     ,,################,,,,,                         
                               ,,#################################,,                 
                          ,,##########################################,,             
                       ,#########################################, ''#####,          
                    ,#############################################,,   '####,        
                  ,##################################################,,,,####,       
                ,###########''''           ''''###############################       
              ,#####''   ,,,,##########,,,,          '''####'''          '####       
            ,##' ,,,,###########################,,,                        '##       
           ' ,,###''''                  '''############,,,                           
         ,,##''                                '''############,,,,        ,,,,,,###''
      ,#''                                            '''#######################'''  
     '                                                          ''''####''''         
             ,#######,   #######,   ,#######,      ##                                
            ,#'     '#,  ##    ##  ,#'     '#,    #''#        ,####,   ,####,        
            ##       ##  ##   ,#'  ##            #'  '#       #'       #'  '#        
            ##       ##  #######   ##           ,######,      #####,   #    #        
            '#,     ,#'  ##    ##  '#,     ,#' ,#      #,     #,   #   #,  ,#        
             '#######'   ##     ##  '#######'  #'      '#     '####' # '####'        



                #########################################################
                #                        -***-                          #
                #          Department of theory and spectroscopy        #
                #                                                       #
                #                      Frank Neese                      #
                #                                                       #
                #     Directorship, Architecture, Infrastructure        #
                #                    SHARK, DRIVERS                     #
                #        Core code/Algorithms in most modules           #
                #                                                       #
                #        Max Planck Institute fuer Kohlenforschung      #
                #                Kaiser Wilhelm Platz 1                 #
                #                 D-45470 Muelheim/Ruhr                 #
                #                      Germany                          #
                #                                                       #
                #                  All rights reserved                  #
                #                        -***-                          #
                #########################################################


                         Program Version 6.0.1  -  RELEASE   -


 With contributions from (in alphabetic order):
[Max-Planck-Institut fuer Kohlenforschung]                               
  Daniel Aravena         : Magnetic Suceptibility                        
  Michael Atanasov       : Ab Initio Ligand Field Theory (pilot matlab implementation)
  Alexander A. Auer      : GIAO ZORA, VPT2 properties, NMR spectrum      
  Ute Becker             : All parallelization in ORCA, NUMFREQ, NUMCALC 
  Giovanni Bistoni       : ED, misc. LED, open-shell LED, HFLD           
  Martin Brehm           : Molecular dynamics                            
  Dmytro Bykov           : pre 5.0 version of the SCF Hessian            
  Marcos Casanova-Páez   : Triplet and SCS-CIS(D). UHF-(DLPNO)-IP/EA/STEOM-CCSD. UHF-CVS-IP/STEOM-CCSD   
  Vijay G. Chilkuri      : MRCI spin determinant printing, contributions to CSF-ICE 
  Pauline Colinet        : FMM embedding                                 
  Dipayan Datta          : RHF DLPNO-CCSD density                        
  Achintya Kumar Dutta   : EOM-CC, STEOM-CC                              
  Nicolas Foglia         : Exact transition moments, OPA infrastructure, MCD improvements    
  Dmitry Ganyushin       : Spin-Orbit,Spin-Spin,Magnetic field MRCI      
  Miquel Garcia-Rates    : C-PCM and meta-GGA Hessian, CCSD/C-PCM, Gaussian charge scheme 
  Tiago L. C. Gouveia    : GS-ROHF, GS-ROCIS                             
  Yang Guo               : DLPNO-NEVPT2, F12-NEVPT2, CIM, IAO-localization        
  Andreas Hansen         : Spin unrestricted coupled pair/coupled cluster methods 
  Ingolf Harden          : AUTO-CI MPn and infrastructure                
  Benjamin Helmich-Paris : MC-RPA, TRAH-(SCF,CASSCF), AVAS, COSX integrals, SCF dyn. polar. 
  Lee Huntington         : MR-EOM, pCC                                   
  Robert Izsak           : Overlap fitted RIJCOSX, COSX-SCS-MP3, EOM     
  Riya Kayal             : Wick's Theorem for AUTO-CI, AUTO-CI UHF-CCSDT 
  Emily Kempfer          : AUTO-CI, RHF CISDT and CCSDT                  
  Christian Kollmar      : KDIIS, OOCD, Brueckner-CCSD(T), CCSD density, CASPT2, CASPT2-K, improved NEVPT2 
  Axel Koslowski         : Symmetry handling                             
  Simone Kossmann        : meta-GGA functionals, TD-DFT gradient, OOMP2, (MP2 Hessian; deprecated post 5.0) 
  Lucas Lang             : DCDCAS                                        
  Marvin Lechner         : AUTO-CI (C++ implementation), FIC-MRCC        
  Spencer Leger          : CASSCF response                               
  Dagmar Lenk            : GEPOL surface, SMD, ORCA-2-JSON               
  Dimitrios Liakos       : Extrapolation schemes; Compound Job, initial MDCI parallelization 
  Dimitrios Manganas     : Further ROCIS development; embedding schemes. LFT, Crystal Embedding 
  Dimitrios Pantazis     : SARC Basis sets                               
  Anastasios Papadopoulos: AUTO-CI, single reference methods and gradients 
  Taras Petrenko         : pre 6.0 DFT Hessian and TD-DFT gradient, (ASA, deprecated), ECA, 1-Electron XAS/XES, NRVS 
  Peter Pinski           : DLPNO-MP2, DLPNO-MP2 Gradient                 
  Christoph Reimann      : Effective Core Potentials                     
  Marius Retegan         : Local ZFS, SOC                                
  Christoph Riplinger    : Optimizer, TS searches, QM/MM, DLPNO-CCSD(T), (RO)-DLPNO pert. Triples 
  Michael Roemelt        : Original ROCIS implementation                 
  Masaaki Saitow         : Open-shell DLPNO-CCSD energy and density      
  Barbara Sandhoefer     : DKH picture change effects                    
  Kantharuban Sivalingam : CASSCF convergence/infrastructure, NEVPT2 and variants, FIC-MRCI 
  Bernardo de Souza      : ESD, SOC TD-DFT                               
  Georgi L. Stoychev     : AutoAux, RI-MP2 NMR, DLPNO-MP2 response, X2C  
  Van Anh Tran           : RI-MP2 g-tensors                              
  Willem Van den Heuvel  : Paramagnetic NMR                              
  Zikuan Wang            : NOTCH, Electric field optimization            
  Frank Wennmohs         : Technical directorship and infrastructure     
  Hang Xu                : AUTO-CI-Response properties                   
                                                                         
[FACCTs GmbH]                                                            
  Markus Bursch, Miquel Garcia-Rates, Christoph Riplinger, Bernardo de Souza, Georgi L. Stoychev 
                                                                 
  APM, Basis sets (HGBS, AHGBS, def-TZVP (Ac-Lr), def2-XVPD (La-Lu)), CI-OPT, improved COSX, DLPNO-Multilevel,           
  DOCKER, DRACO, updates on ESD, GOAT, IRC, LR-CPCM, MBIS, meta-GGA TD-DFT gradient, ML-optimized integration grids, 
  MM, NACMEs, nearIR, NEB, NEB-TS, NL-DFT gradient (VV10), 2- and 3-layer-ONIOM, interface openCOSMO-RS, QMMM,   
  Crystal-QMMM, SF, symmetry and pop. for TD-DFT, r2SCAN hybrids, SOLVATOR                                   
                                                                         
[Other institutions]                                                     
  V. Asgeirsson          : NEB                                           
  Christoph Bannwarth    : sTDA-DFT, sTD-DFT, PBEh-3c, B97-3c, D3        
  Sebastian Ehlert       : rSCAN, r2SCAN, r2SCAN-3c, D4, dhf basis sets  
  Marvin Friede          : D4 for Fr, Ra, Ac-Lr                          
  Lars Goerigk           : TD-DFT with DH, B97 family of functionals     
  Stefan Grimme          : VdW corrections, initial TS optimization, DFT functionals, gCP, sTDA/sTD-DF 
  Waldemar Hujo          : DFT-NL                                        
  H. Jonsson             : NEB                                           
  Holger Kruse           : gCP                                           
  Marcel Mueller         : wB97X-3c, vDZP basis set                      
  Hagen Neugebauer       : wr2SCAN                                       
  Tobias Risthaus        : range-separated hybrid DFT                    
  Lukas Wittmann         : regularized MP2, r2SCAN double-hybrids, wr2SCAN        
                                                                         
We gratefully acknowledge several colleagues who have allowed us to      
interface, adapt or use parts of their codes:                            
  Ed Valeev, F. Pavosevic, A. Kumar             : LibInt (2-el integral package), F12 methods 
  Garnet Chan, S. Sharma, J. Yang, R. Olivares  : DMRG                   
  Ulf Ekstrom                                   : XCFun DFT Library      
  Mihaly Kallay                                 : mrcc  (arbitrary order and MRCC methods)
  Frank Weinhold                                : gennbo (NPA and NBO analysis)           
  Simon Mueller                                 : openCOSMO-RS                            
  Christopher J. Cramer and Donald G. Truhlar   : smd solvation model                     
  S Lehtola, MJT Oliveira, MAL Marques          : LibXC Library                           
  Liviu Ungur et al                             : ANISO software                          


 Your calculation uses the libint2 library for the computation of 2-el integrals
 For citations please refer to: http://libint.valeyev.net

 Your ORCA version has been built with support for libXC version: 6.2.2
 For citations please refer to: https://libxc.gitlab.io

 This ORCA versions uses:
   CBLAS   interface :  Fast vector & matrix operations
   LAPACKE interface :  Fast linear algebra routines
   SCALAPACK package :  Parallel linear algebra routines
   Shared memory     :  Shared parallel matrices
   BLAS/LAPACK       :  OpenBLAS 0.3.27  USE64BITINT DYNAMIC_ARCH NO_AFFINITY SapphireRapids SINGLE_THREADED
        Core in use  :  SapphireRapids
   Copyright (c) 2011-2014, The OpenBLAS Project


Warning! Weird basis set assignment to AuxJK basis!


***************************************
The coordinates will be read from file: /g/data/kx58/rs2200/dhdft/inputs/compas3D-xyzs/hc_c16h10_0pent_1.xyz
***************************************


Your calculation utilizes the atom-pairwise dispersion correction
based on EEQ partial charges (D4)


================================================================================

----- Orbital basis set information -----
Your calculation utilizes the basis: def2-QZVPP
   F. Weigend and R. Ahlrichs, Phys. Chem. Chem. Phys. 7, 3297 (2005).

----- AuxC basis set information -----
Your calculation utilizes the auxiliary basis: def2-QZVPP/C
  H-La, Hf-Rn : A. Hellweg, C. Hattig, S. Hofener and W. Klopper, Theor. Chem. Acc. 117, 587 (2007).
        Ce-Lu : J. Chmela and M. E. Harding, Mol. Phys. (2018).

----- AuxJK basis set information -----
Your calculation utilizes the auxiliary basis: def2-QZVPP/C
  H-La, Hf-Rn : A. Hellweg, C. Hattig, S. Hofener and W. Klopper, Theor. Chem. Acc. 117, 587 (2007).
        Ce-Lu : J. Chmela and M. E. Harding, Mol. Phys. (2018).

================================================================================
                                        WARNINGS
                       Please study these warnings very carefully!
================================================================================


WARNING: No MP2 level density has been requested!
         To calculate MP2 level properties use
         %mp2 Density relaxed end
         or
         %mp2 Density unrelaxed end
         Otherwise for double-hybrid DFT only the energy is correct!

================================================================================
                                       INPUT FILE
================================================================================
NAME = compas3D_hc_c16h10_0pent_1_qz_riri.inp
|  1> ! RKS revDSD-PBEP86-D4/2021 defgrid3  RIJK NOPOP NoFrozencore NoUseSym
|  2> 
|  3> %basis
|  4> Basis "def2-QZVPP"
|  5> AuxJK "def2-QZVPP/C"
|  6> AuxC "def2-QZVPP/C"
|  7> end
|  8> 
|  9> %method
| 10> ScalHFX 0.69
| 11> ScalDFX 0.31
| 12> ScalDFC 0.4038
| 13> ScalLDAC 0.4038
| 14> 
| 15> D4S6 0.4612
| 16> D4S8 0.0
| 17> D4A1 0.44
| 18> D4A2 3.60
| 19> end
| 20> 
| 21> %mp2
| 22> PS 0.5979
| 23> PT 0.0571
| 24> 
| 25> end
| 26> 
| 27> %pal
| 28> nprocs 104
| 29> end
| 30> 
| 31> *XYZFILE 0 1 /g/data/kx58/rs2200/dhdft/inputs/compas3D-xyzs/hc_c16h10_0pent_1.xyz
| 32> 
| 33>                          ****END OF INPUT****
================================================================================

                       ****************************
                       * Single Point Calculation *
                       ****************************

---------------------------------
CARTESIAN COORDINATES (ANGSTROEM)
---------------------------------
  C      1.867304    0.248578    0.000551
  C      0.597795   -0.391035    0.000146
  C     -0.597640    0.391035    0.000009
  C     -0.519571    1.810336    0.000276
  C      0.780831    2.429570    0.000688
  C      1.914169    1.688158    0.000819
  C      3.025505   -0.537114    0.000676
  C      2.941891   -1.925189    0.000412
  C      1.703220   -2.557261    0.000018
  C      0.519725   -1.810336   -0.000122
  C     -0.780677   -2.429570   -0.000533
  C     -1.914015   -1.688158   -0.000664
  C     -1.867150   -0.248577   -0.000397
  C     -3.025351    0.537114   -0.000523
  C     -2.941738    1.925188   -0.000260
  C     -1.703066    2.557261    0.000135
  H      0.832898    3.520741    0.000895
  H      2.892956    2.173211    0.001135
  H      4.001202   -0.045953    0.000984
  H      3.855536   -2.523049    0.000514
  H      1.643249   -3.647984   -0.000188
  H     -0.832744   -3.520741   -0.000738
  H     -2.892802   -2.173211   -0.000978
  H     -4.001047    0.045953   -0.000832
  H     -3.855383    2.523049   -0.000363
  H     -1.643096    3.647984    0.000340

----------------------------
CARTESIAN COORDINATES (A.U.)
----------------------------
  NO LB      ZA    FRAG     MASS         X           Y           Z
   0 C     6.0000    0    12.011    3.528694    0.469743    0.001042
   1 C     6.0000    0    12.011    1.129668   -0.738949    0.000277
   2 C     6.0000    0    12.011   -1.129377    0.738949    0.000016
   3 C     6.0000    0    12.011   -0.981847    3.421038    0.000523
   4 C     6.0000    0    12.011    1.475557    4.591222    0.001300
   5 C     6.0000    0    12.011    3.617256    3.190157    0.001548
   6 C     6.0000    0    12.011    5.717375   -1.014998    0.001277
   7 C     6.0000    0    12.011    5.559369   -3.638079    0.000779
   8 C     6.0000    0    12.011    3.218619   -4.832523    0.000034
   9 C     6.0000    0    12.011    0.982137   -3.421038   -0.000230
  10 C     6.0000    0    12.011   -1.475266   -4.591222   -0.001006
  11 C     6.0000    0    12.011   -3.616965   -3.190156   -0.001254
  12 C     6.0000    0    12.011   -3.528402   -0.469743   -0.000750
  13 C     6.0000    0    12.011   -5.717084    1.014998   -0.000989
  14 C     6.0000    0    12.011   -5.559079    3.638079   -0.000492
  15 C     6.0000    0    12.011   -3.218329    4.832523    0.000254
  16 H     1.0000    0     1.008    1.573948    6.653237    0.001691
  17 H     1.0000    0     1.008    5.466894    4.106774    0.002144
  18 H     1.0000    0     1.008    7.561175   -0.086839    0.001860
  19 H     1.0000    0     1.008    7.285908   -4.767872    0.000971
  20 H     1.0000    0     1.008    3.105291   -6.893691   -0.000355
  21 H     1.0000    0     1.008   -1.573658   -6.653237   -0.001395
  22 H     1.0000    0     1.008   -5.466603   -4.106773   -0.001849
  23 H     1.0000    0     1.008   -7.560884    0.086838   -0.001573
  24 H     1.0000    0     1.008   -7.285618    4.767871   -0.000687
  25 H     1.0000    0     1.008   -3.105001    6.893691    0.000643

--------------------------------
INTERNAL COORDINATES (ANGSTROEM)
--------------------------------
 C      0   0   0     0.000000000000     0.00000000     0.00000000
 C      1   0   0     1.421533989932     0.00000000     0.00000000
 C      2   1   0     1.428530166673   120.06656830     0.00000000
 C      3   2   1     1.421446114500   120.04483735     0.00000000
 C      4   3   2     1.440311189649   118.61160675     0.00000000
 C      5   4   3     1.354306779191   121.34475315     0.00000000
 C      1   2   3     1.399549707046   119.10794425   180.00019454
 C      7   1   2     1.390590912060   120.70472557     0.00000000
 C      8   7   1     1.390619670681   120.48158386     0.00000000
 C      9   8   7     1.399485140779   120.70879848     0.00000000
 C     10   9   8     1.440311145977   122.28004606   179.99976530
 C     11  10   9     1.354306761478   121.34474923   180.00008418
 C      3   2   1     1.421533902552   120.06657297   179.99997511
 C     13   3   2     1.399549601755   119.10796247   179.99989284
 C     14  13   3     1.390590713823   120.70472777     0.00000000
 C     15  14  13     1.390619740506   120.48157848     0.00000000
 H      5   4   3     1.092412870845   118.19505324   180.00015310
 H      6   5   4     1.092382445590   120.44650591   180.00013762
 H      7   1   2     1.092347485065   119.12768412   179.99983999
 H      8   7   1     1.091872036347   119.75231624   179.99998458
 H      9   8   7     1.092370598099   120.18151998   179.99999829
 H     11  10   9     1.092412863963   118.19505171     0.00000000
 H     12  11  10     1.092382428746   120.44650128   179.99988219
 H     14  13   3     1.092347544441   119.12766485   180.00013600
 H     15  14  13     1.091872009739   119.75232531   180.00002381
 H     16  15  14     1.092370591001   120.18151001   180.00001853

---------------------------
INTERNAL COORDINATES (A.U.)
---------------------------
 C      0   0   0     0.000000000000     0.00000000     0.00000000
 C      1   0   0     2.686309931032     0.00000000     0.00000000
 C      2   1   0     2.699530789056   120.06656830     0.00000000
 C      3   2   1     2.686143870532   120.04483735     0.00000000
 C      4   3   2     2.721793696058   118.61160675     0.00000000
 C      5   4   3     2.559268913984   121.34475315     0.00000000
 C      1   2   3     2.644765657127   119.10794425   180.00019454
 C      7   1   2     2.627835988114   120.70472557     0.00000000
 C      8   7   1     2.627890334031   120.48158386     0.00000000
 C      9   8   7     2.644643644564   120.70879848     0.00000000
 C     10   9   8     2.721793613530   122.28004606   179.99976530
 C     11  10   9     2.559268880512   121.34474923   180.00008418
 C      3   2   1     2.686309765908   120.06657297   179.99997511
 C     13   3   2     2.644765458155   119.10796247   179.99989284
 C     14  13   3     2.627835613499   120.70472777     0.00000000
 C     15  14  13     2.627890465982   120.48157848     0.00000000
 H      5   4   3     2.064361151067   118.19505324   180.00015310
 H      6   5   4     2.064303655668   120.44650591   180.00013762
 H      7   1   2     2.064237589850   119.12768412   179.99983999
 H      8   7   1     2.063339121983   119.75231624   179.99998458
 H      9   8   7     2.064281267155   120.18151998   179.99999829
 H     11  10   9     2.064361138062   118.19505171     0.00000000
 H     12  11  10     2.064303623838   120.44650128   179.99988219
 H     14  13   3     2.064237702056   119.12766485   180.00013600
 H     15  14  13     2.063339071701   119.75232531   180.00002381
 H     16  15  14     2.064281253741   120.18151001   180.00001853

---------------------
BASIS SET INFORMATION
---------------------
There are 2 groups of distinct atoms

 Group   1 Type C   : 15s8p3d2f1g contracted to 7s4p3d2f1g pattern {8211111/5111/111/11/1}
 Group   2 Type H   : 7s3p2d1f contracted to 4s3p2d1f pattern {4111/111/11/1}

Atom   0C    basis set group =>   1
Atom   1C    basis set group =>   1
Atom   2C    basis set group =>   1
Atom   3C    basis set group =>   1
Atom   4C    basis set group =>   1
Atom   5C    basis set group =>   1
Atom   6C    basis set group =>   1
Atom   7C    basis set group =>   1
Atom   8C    basis set group =>   1
Atom   9C    basis set group =>   1
Atom  10C    basis set group =>   1
Atom  11C    basis set group =>   1
Atom  12C    basis set group =>   1
Atom  13C    basis set group =>   1
Atom  14C    basis set group =>   1
Atom  15C    basis set group =>   1
Atom  16H    basis set group =>   2
Atom  17H    basis set group =>   2
Atom  18H    basis set group =>   2
Atom  19H    basis set group =>   2
Atom  20H    basis set group =>   2
Atom  21H    basis set group =>   2
Atom  22H    basis set group =>   2
Atom  23H    basis set group =>   2
Atom  24H    basis set group =>   2
Atom  25H    basis set group =>   2
---------------------------------
AUXILIARY/C BASIS SET INFORMATION
---------------------------------
There are 2 groups of distinct atoms

 Group   1 Type C   : 9s8p7d5f3g1h contracted to 9s8p7d5f3g1h pattern {111111111/11111111/1111111/11111/111/1}
 Group   2 Type H   : 6s4p3d2f1g contracted to 6s4p3d2f1g pattern {111111/1111/111/11/1}

Atom   0C    basis set group =>   1
Atom   1C    basis set group =>   1
Atom   2C    basis set group =>   1
Atom   3C    basis set group =>   1
Atom   4C    basis set group =>   1
Atom   5C    basis set group =>   1
Atom   6C    basis set group =>   1
Atom   7C    basis set group =>   1
Atom   8C    basis set group =>   1
Atom   9C    basis set group =>   1
Atom  10C    basis set group =>   1
Atom  11C    basis set group =>   1
Atom  12C    basis set group =>   1
Atom  13C    basis set group =>   1
Atom  14C    basis set group =>   1
Atom  15C    basis set group =>   1
Atom  16H    basis set group =>   2
Atom  17H    basis set group =>   2
Atom  18H    basis set group =>   2
Atom  19H    basis set group =>   2
Atom  20H    basis set group =>   2
Atom  21H    basis set group =>   2
Atom  22H    basis set group =>   2
Atom  23H    basis set group =>   2
Atom  24H    basis set group =>   2
Atom  25H    basis set group =>   2
----------------------------------
AUXILIARY/JK BASIS SET INFORMATION
----------------------------------
There are 2 groups of distinct atoms

 Group   1 Type C   : 9s8p7d5f3g1h contracted to 9s8p7d5f3g1h pattern {111111111/11111111/1111111/11111/111/1}
 Group   2 Type H   : 6s4p3d2f1g contracted to 6s4p3d2f1g pattern {111111/1111/111/11/1}

Atom   0C    basis set group =>   1
Atom   1C    basis set group =>   1
Atom   2C    basis set group =>   1
Atom   3C    basis set group =>   1
Atom   4C    basis set group =>   1
Atom   5C    basis set group =>   1
Atom   6C    basis set group =>   1
Atom   7C    basis set group =>   1
Atom   8C    basis set group =>   1
Atom   9C    basis set group =>   1
Atom  10C    basis set group =>   1
Atom  11C    basis set group =>   1
Atom  12C    basis set group =>   1
Atom  13C    basis set group =>   1
Atom  14C    basis set group =>   1
Atom  15C    basis set group =>   1
Atom  16H    basis set group =>   2
Atom  17H    basis set group =>   2
Atom  18H    basis set group =>   2
Atom  19H    basis set group =>   2
Atom  20H    basis set group =>   2
Atom  21H    basis set group =>   2
Atom  22H    basis set group =>   2
Atom  23H    basis set group =>   2
Atom  24H    basis set group =>   2
Atom  25H    basis set group =>   2


           ************************************************************
           *        Program running with 104 parallel MPI-processes   *
           *              working on a common directory               *
           ************************************************************
------------------------------------------------------------------------------
                             ORCA STARTUP CALCULATIONS
                           -- RI-GTO INTEGRALS CHOSEN --
------------------------------------------------------------------------------
------------------------------------------------------------------------------
                   ___                                                        
                  /   \      - P O W E R E D   B Y -                         
                 /     \                                                     
                 |  |  |   _    _      __       _____    __    __             
                 |  |  |  | |  | |    /  \     |  _  \  |  |  /  |          
                  \  \/   | |  | |   /    \    | | | |  |  | /  /          
                 / \  \   | |__| |  /  /\  \   | |_| |  |  |/  /          
                |  |  |   |  __  | /  /__\  \  |    /   |      \           
                |  |  |   | |  | | |   __   |  |    \   |  |\   \          
                \     /   | |  | | |  |  |  |  | |\  \  |  | \   \       
                 \___/    |_|  |_| |__|  |__|  |_| \__\ |__|  \__/        
                                                                              
                      - O R C A' S   B I G   F R I E N D -                    
                                      &                                       
                       - I N T E G R A L  F E E D E R -                       
                                                                              
 v1 FN, 2020, v2 2021, v3 2022-2024                                           
------------------------------------------------------------------------------


----------------------
SHARK INTEGRAL PACKAGE
----------------------

Number of atoms                             ...     26
Number of basis functions                   ...   1212
Number of shells                            ...    372
Maximum angular momentum                    ...      4
Integral batch strategy                     ... SHARK/LIBINT Hybrid
RI-J (if used) integral strategy            ... SPLIT-RIJ (Revised 2003 algorithm where possible)
Printlevel                                  ...      1
Contraction scheme used                     ... SEGMENTED contraction
Prescreening option                         ... SCHWARTZ
   Thresh                                   ... 1.000e-10
   Tcut                                     ... 1.000e-11
   Tpresel                                  ... 1.000e-11 
Coulomb Range Separation                    ... NOT USED
Exchange Range Separation                   ... NOT USED
Multipole approximations                    ... NOT USED
Finite Nucleus Model                        ... NOT USED
CABS basis                                  ... NOT available
Auxiliary Coulomb fitting basis             ... NOT available
Auxiliary J/K fitting basis                 ... AVAILABLE
   # of basis functions in Aux-JK           ...   2816
   # of shells in Aux-JK                    ...    688
   Maximum angular momentum in Aux-JK       ...      5
Auxiliary Correlation fitting basis         ... AVAILABLE
   # of basis functions in Aux-C            ...   2816
   # of shells in Aux-C                     ...    688
   Maximum angular momentum in Aux-C        ...      5
Auxiliary 'external' fitting basis          ... NOT available

Checking pre-screening integrals            ... done (  0.0 sec) Dimension = 372
Check shell pair data                       ... done (  0.0 sec)
Shell pair information
Shell pair cut-off parameter TPreSel        ...   1.0e-11
Total number of shell pairs                 ...     69378
Shell pairs after pre-screening             ...     49999
Total number of primitive shell pairs       ...    177399
Primitive shell pairs kept                  ...     91553
          la=0 lb=0:   7612 shell pairs
          la=1 lb=0:  10866 shell pairs
          la=1 lb=1:   3704 shell pairs
          la=2 lb=0:   7038 shell pairs
          la=2 lb=1:   4966 shell pairs
          la=2 lb=2:   1708 shell pairs
          la=3 lb=0:   4256 shell pairs
          la=3 lb=1:   3012 shell pairs
          la=3 lb=2:   1948 shell pairs
          la=3 lb=3:    620 shell pairs
          la=4 lb=0:   1688 shell pairs
          la=4 lb=1:   1196 shell pairs
          la=4 lb=2:    794 shell pairs
          la=4 lb=3:    484 shell pairs
          la=4 lb=4:    107 shell pairs

Calculating one electron integrals          ... done (  0.9 sec)
Calculating RI/JK V-Matrix + Cholesky decomp... done (100.9 sec)
Calculating RI/C V-Matrix + Cholesky decomp.... done (  0.9 sec)
Calculating Nuclear repulsion               ... done (  0.0 sec) ENN=    967.239927958723 Eh

Diagonalization of the overlap matrix:
Smallest eigenvalue                        ... 3.316e-06
Time for diagonalization                   ...    0.330 sec
Threshold for overlap eigenvalues          ... 1.000e-07
Number of eigenvalues below threshold      ... 0
Time for construction of square roots      ...    0.173 sec
Total time needed                          ...    0.551 sec

-------------------
DFT GRID GENERATION
-------------------

General Integration Accuracy     IntAcc      ... 4.959
Radial Grid Type                 RadialGrid  ... OptM3 with GC (2021)
Angular Grid (max. ang.)         AngularGrid ... 6 (Lebedev-590)
Angular grid pruning method      GridPruning ... 4 (adaptive)
Weight generation scheme         WeightScheme... mBecke (2022)
Basis function cutoff            BFCut       ... 1.0000e-10
Integration weight cutoff        WCut        ... 1.0000e-14
Partially contracted basis set               ... off
Rotationally invariant grid construction     ... off
Angular grids for H and He will be reduced by one unit
Diffuse basis detected: some atoms will have their outermost
                        angular grid increased by 1.

Total number of grid points                  ...   319272
Total number of batches                      ...     5002
Average number of points per batch           ...       63
Average number of grid points per atom       ...    12280
Initializing property integral containers    ... done (  0.1 sec)

SHARK setup successfully completed in 108.3 seconds

Maximum memory used throughout the entire STARTUP-calculation: 121.1 MB


           ************************************************************
           *        Program running with 104 parallel MPI-processes   *
           *              working on a common directory               *
           ************************************************************
-------------------------------------------------------------------------------
                                 ORCA GUESS
                   Start orbitals & Density for SCF / CASSCF
-------------------------------------------------------------------------------

------------
SCF SETTINGS
------------
Hamiltonian:
 Density Functional     Method          .... DFT(GTOs)
 Exchange Functional    Exchange        .... PBE
   PBE kappa parameter   XKappa         ....  0.804000
   PBE mue parameter    XMuePBE         ....  0.219520
 Correlation Functional Correlation     .... P86
 LDA part of GGA corr.  LDAOpt          .... VWN-5
 Gradients option       PostSCFGGA      .... off
 Hybrid DFT is turned on
   Fraction HF Exchange ScalHFX         ....  0.690000
   Scaling of DF-GGA-X  ScalDFX         ....  0.310000
   Scaling of DF-GGA-C  ScalDFC         ....  0.403800
   Scaling of DF-LDA-C  ScalLDAC        ....  0.403800
   Perturbative correction              ....  1.000000
 RI-approximation to the Coulomb term is turned on
   Number of AuxJK basis functions      .... 2816
   RI-JK (J+K treated both via RI)      .... on


General Settings:
 Integral files         IntName         .... compas3D_hc_c16h10_0pent_1_qz_riri
 Hartree-Fock type      HFTyp           .... RHF
 Total Charge           Charge          ....    0
 Multiplicity           Mult            ....    1
 Number of Electrons    NEL             ....  106
 Basis Dimension        Dim             .... 1212
 Nuclear Repulsion      ENuc            ....    967.2399279587 Eh

Convergence Acceleration:
 AO-DIIS                CNVDIIS         .... on
   Start iteration      DIISMaxIt       ....    12
   Startup error        DIISStart       ....  0.200000
   # of expansion vecs  DIISMaxEq       ....     5
   Bias factor          DIISBfac        ....   1.050
   Max. coefficient     DIISMaxC        ....  10.000
 MO-DIIS                CNVKDIIS        .... off
 Trust-Rad. Augm. Hess. CNVTRAH         .... auto
   Auto Start mean grad. ratio tolernc. ....  1.125000
   Auto Start start iteration           ....    50
   Auto Start num. interpolation iter.  ....    10
   Max. Number of Micro iterations      ....    24
   Max. Number of Macro iterations      .... Maxiter - #DIIS iter
   Number of Davidson start vectors     ....     2
   Converg. threshold    (grad. norm)   ....   5.000e-05
   Grad. Scal. Fac. for Micro threshold ....   0.100
   Minimum threshold for Micro iter.    ....   1.000e-02
   NR start threshold (gradient norm)   ....   1.000e-04
   Initial trust radius                 ....   0.400
   Minimum AH scaling param. (alpha)    ....   1.000
   Maximum AH scaling param. (alpha)    .... 1000.000
   Quad. conv. algorithm                .... NR
   White noise on init. David. guess    .... on
   Maximum white noise                  ....   0.010
   Pseudo random numbers                .... off
   Inactive MOs                         .... canonical
   Orbital update algorithm             .... Taylor
   Preconditioner                       .... Diag
   Full preconditioner red. dimension   ....   250
 SOSCF                  CNVSOSCF        .... on
   Start iteration      SOSCFMaxIt      ....   150
   Startup grad/error   SOSCFStart      ....  0.003300
   Hessian update       SOSCFHessUp     .... L-BFGS
 Level Shifting         CNVShift        .... on
   Level shift para.    LevelShift      ....    0.2500
   Turn off err/grad.   ShiftErr        ....    0.0010
 Zerner damping         CNVZerner       .... off
 Static damping         CNVDamp         .... on
   Fraction old density DampFac         ....    0.7000
   Max. Damping (<1)    DampMax         ....    0.9800
   Min. Damping (>=0)   DampMin         ....    0.0000
   Turn off err/grad.   DampErr         ....    0.1000

SCF Procedure:
 Maximum # iterations   MaxIter         ....   125
 SCF integral mode      SCFMode         .... Direct
   Integral package                     .... SHARK and LIBINT hybrid scheme
 Reset frequency        DirectResetFreq ....    20
 Integral Threshold     Thresh          ....  1.000e-10 Eh
 Primitive CutOff       TCut            ....  1.000e-11 Eh

Convergence Tolerance:
 Convergence Check Mode ConvCheckMode   .... Total+1el-Energy
 Convergence forced     ConvForced      .... 0
 Energy Change          TolE            ....  1.000e-06 Eh
 1-El. energy change                    ....  1.000e-03 Eh
 Orbital Gradient       TolG            ....  5.000e-05
 Orbital Rotation angle TolX            ....  5.000e-05
 DIIS Error             TolErr          ....  1.000e-06

------------------------------
INITIAL GUESS: MODEL POTENTIAL
------------------------------
Loading Hartree-Fock densities                     ... done
Calculating cut-offs                               ... done
Initializing the effective Hamiltonian             ... done
Setting up the integral package (SHARK)            ... done
Starting the Coulomb interaction                   ... done (   0.2 sec)
Making the grid                                    ... done (   0.3 sec)
Mapping shells                                     ... done
Starting the XC term evaluation                    ... done (   0.1 sec)
  promolecular density results
     # of electrons  =    105.989532259
     EX              =    -84.817108621
     EC              =      0.148289067
     EX+EC           =    -84.668819554
Transforming the Hamiltonian                       ... done (   0.2 sec)
Diagonalizing the Hamiltonian                      ... done (   0.2 sec)
Back transforming the eigenvectors                 ... done (   0.1 sec)
Now organizing SCF variables                       ... done
                      ------------------
                      INITIAL GUESS DONE (   1.5 sec)
                      ------------------
             **** ENERGY FILE WAS UPDATED (compas3D_hc_c16h10_0pent_1_qz_riri.en.tmp) ****
Finished Guess after  17.8 sec
Maximum memory used throughout the entire GUESS-calculation: 108.1 MB


           ************************************************************
           *        Program running with 104 parallel MPI-processes   *
           *              working on a common directory               *
           ************************************************************

-------------------------------------------------------------------------------------------
                                      ORCA LEAN-SCF
                              memory conserving SCF solver
-------------------------------------------------------------------------------------------

----------------------------------------D-I-I-S--------------------------------------------
Iteration    Energy (Eh)           Delta-E    RMSDP     MaxDP     DIISErr   Damp  Time(sec)
-------------------------------------------------------------------------------------------
    1    -613.0935612140136755     0.00e+00  2.77e-04  2.18e-02  1.48e-01  0.700   7.3
    2    -612.9700875570482594     1.23e-01  2.50e-04  1.70e-02  1.32e-01  0.700   7.6
                               ***Turning on AO-DIIS***
    3    -613.0424983319434205    -7.24e-02  1.85e-04  1.41e-02  7.84e-02  0.700   7.5
    4    -613.1918657353797926    -1.49e-01  3.57e-04  3.29e-02  4.09e-02  0.000   7.7
    5    -613.4254535716573855    -2.34e-01  9.80e-05  7.45e-03  3.37e-02  0.000   7.6
    6    -613.4357226492501241    -1.03e-02  5.82e-05  4.72e-03  1.55e-02  0.000   7.1
    7    -613.4382752889631547    -2.55e-03  2.21e-05  1.74e-03  5.03e-03  0.000   7.6
                              *** Initializing SOSCF ***
---------------------------------------S-O-S-C-F--------------------------------------
Iteration    Energy (Eh)           Delta-E    RMSDP     MaxDP     MaxGrad    Time(sec)
--------------------------------------------------------------------------------------
    8    -613.4385579350197304    -2.83e-04  7.80e-06  4.89e-04  8.78e-04     8.5
    9    -613.4385788797329724    -2.09e-05  5.59e-06  3.68e-04  3.12e-04     7.1
   10    -613.4385815492033771    -2.67e-06  3.56e-06  2.19e-04  1.44e-04     6.7
   11    -613.4385821068952964    -5.58e-07  1.44e-06  8.99e-05  5.89e-05     6.2
                 **** Energy Check signals convergence ****

               *****************************************************
               *                     SUCCESS                       *
               *           SCF CONVERGED AFTER  11 CYCLES          *
               *****************************************************

             **** ENERGY FILE WAS UPDATED (compas3D_hc_c16h10_0pent_1_qz_riri.en.tmp) ****

----------------
TOTAL SCF ENERGY
----------------

Total Energy       :       -613.43858210689530 Eh          -16692.51245 eV

Components:
Nuclear Repulsion  :        967.23992795872334 Eh           26319.93652 eV
Electronic Energy  :      -1580.67851006561864 Eh          -43012.44897 eV
One Electron Energy:      -2748.70405644951370 Eh          -74796.03993 eV
Two Electron Energy:       1168.02554638389506 Eh           31783.59096 eV

Virial components:
Potential Energy   :      -1225.00935884000205 Eh          -33334.19933 eV
Kinetic Energy     :        611.57077673310675 Eh           16641.68688 eV
Virial Ratio       :          2.00305411155151

DFT components:
N(Alpha)           :       52.999998429494 electrons
N(Beta)            :       52.999998429494 electrons
N(Total)           :      105.999996858989 electrons
E(X)               :      -26.741123444393 Eh       
E(C)               :       -1.571292564310 Eh       
E(XC)              :      -28.312416008703 Eh       

---------------
SCF CONVERGENCE
---------------

  Last Energy change         ...    5.5769e-07  Tolerance :   1.0000e-06
  Last MAX-Density change    ...    8.9868e-05  Tolerance :   1.0000e-05
  Last RMS-Density change    ...    1.4357e-06  Tolerance :   1.0000e-06
  Last DIIS Error            ...    8.7796e-04  Tolerance :   1.0000e-06
  Last Orbital Gradient      ...    5.8912e-05  Tolerance :   5.0000e-05
  Last Orbital Rotation      ...    1.2588e-04  Tolerance :   5.0000e-05


----------------
ORBITAL ENERGIES
----------------

  NO   OCC          E(Eh)            E(eV) 
   0   2.0000     -10.834723      -294.8278 
   1   2.0000     -10.834648      -294.8258 
   2   2.0000     -10.834480      -294.8212 
   3   2.0000     -10.834471      -294.8210 
   4   2.0000     -10.833103      -294.7837 
   5   2.0000     -10.832375      -294.7639 
   6   2.0000     -10.827827      -294.6402 
   7   2.0000     -10.827826      -294.6401 
   8   2.0000     -10.826579      -294.6062 
   9   2.0000     -10.826578      -294.6062 
  10   2.0000     -10.826486      -294.6037 
  11   2.0000     -10.826484      -294.6036 
  12   2.0000     -10.825410      -294.5744 
  13   2.0000     -10.825409      -294.5744 
  14   2.0000     -10.824940      -294.5616 
  15   2.0000     -10.824940      -294.5616 
  16   2.0000      -1.087647       -29.5964 
  17   2.0000      -1.039416       -28.2839 
  18   2.0000      -1.014671       -27.6106 
  19   2.0000      -0.975374       -26.5413 
  20   2.0000      -0.939824       -25.5739 
  21   2.0000      -0.918831       -25.0027 
  22   2.0000      -0.897621       -24.4255 
  23   2.0000      -0.874094       -23.7853 
  24   2.0000      -0.773267       -21.0417 
  25   2.0000      -0.773032       -21.0353 
  26   2.0000      -0.765443       -20.8288 
  27   2.0000      -0.748330       -20.3631 
  28   2.0000      -0.674516       -18.3545 
  29   2.0000      -0.644513       -17.5381 
  30   2.0000      -0.640517       -17.4293 
  31   2.0000      -0.622281       -16.9331 
  32   2.0000      -0.607568       -16.5328 
  33   2.0000      -0.582169       -15.8416 
  34   2.0000      -0.549574       -14.9547 
  35   2.0000      -0.543116       -14.7789 
  36   2.0000      -0.540849       -14.7172 
  37   2.0000      -0.521610       -14.1937 
  38   2.0000      -0.510966       -13.9041 
  39   2.0000      -0.502169       -13.6647 
  40   2.0000      -0.501152       -13.6370 
  41   2.0000      -0.489893       -13.3307 
  42   2.0000      -0.463230       -12.6051 
  43   2.0000      -0.462238       -12.5781 
  44   2.0000      -0.452109       -12.3025 
  45   2.0000      -0.425631       -11.5820 
  46   2.0000      -0.422104       -11.4860 
  47   2.0000      -0.409672       -11.1478 
  48   2.0000      -0.371285       -10.1032 
  49   2.0000      -0.336756        -9.1636 
  50   2.0000      -0.318357        -8.6629 
  51   2.0000      -0.279840        -7.6148 
  52   2.0000      -0.243998        -6.6395 
  53   0.0000       0.005600         0.1524 
  54   0.0000       0.036200         0.9850 
  55   0.0000       0.060930         1.6580 
  56   0.0000       0.076010         2.0683 
  57   0.0000       0.079768         2.1706 
  58   0.0000       0.082675         2.2497 
  59   0.0000       0.085426         2.3245 
  60   0.0000       0.100316         2.7297 
  61   0.0000       0.103448         2.8150 
  62   0.0000       0.121885         3.3166 
  63   0.0000       0.125168         3.4060 
*Only the first 10 virtual orbitals were printed.
-------
TIMINGS
-------

Total SCF time: 0 days 0 hours 1 min 38 sec 

Total time                  ....      98.182 sec
Sum of individual times     ....      97.607 sec  ( 99.4%)

SCF preparation             ....      16.031 sec  ( 16.3%)
Fock matrix formation       ....      62.856 sec  ( 64.0%)
  Startup                   ....       2.790 sec  (  4.4% of F)
  RI-JK                     ....      48.233 sec  ( 76.7% of F)
  XC integration            ....       6.682 sec  ( 10.6% of F)
    Basis function eval.    ....       0.539 sec  (  8.1% of XC)
    Density eval.           ....       0.897 sec  ( 13.4% of XC)
    XC-Functional eval.     ....       0.020 sec  (  0.3% of XC)
    XC-Potential eval.      ....       1.580 sec  ( 23.6% of XC)
Diagonalization             ....       0.000 sec  (  0.0%)
Density matrix formation    ....       3.758 sec  (  3.8%)
Total Energy calculation    ....       2.143 sec  (  2.2%)
Population analysis         ....       0.000 sec  (  0.0%)
Orbital Transformation      ....       1.399 sec  (  1.4%)
Orbital Orthonormalization  ....       0.000 sec  (  0.0%)
DIIS solution               ....       9.180 sec  (  9.3%)
SOSCF solution              ....       2.107 sec  (  2.1%)
Finished LeanSCF after  98.8 sec

Maximum memory used throughout the entire LEANSCF-calculation: 279.8 MB


           ************************************************************
           *        Program running with 104 parallel MPI-processes   *
           *              working on a common directory               *
           ************************************************************

------------------------------------------------------------------------------
                                ORCA  MP2 
------------------------------------------------------------------------------


-------------
RI-MP2 ENERGY
-------------
Dimension of the orbital basis            ... 1212
Dimension of the AuxC basis               ... 2816
Memory devoted to MP2                     ... 4096 MB   
Data format for matrix containers         ... DOUBLE
Compression type for matrix containers    ... UNCOMPRESSED
Scaling for aa/bb pairs                   ...   5.710e-02
Scaling for ab pairs                      ...   5.979e-01
Overall scaling of the MP2 energy         ...   1.000e+00

-----------------------
SHARK RI TRANSFORMATION
-----------------------

Number of basis functions                ...   1212
Number of aux functions                  ...   2816
Number of operators                      ...      1
Generation of IJK                        ... NO
Generation of IAK                        ... YES
Generation of ABK                        ... NO
Orbital Range Operator  0:    0-  52 to   53-1211

Aux basis identifier                     ...   AUXC
Contraction scheme used                  ... SEGMENTED
Do orthogonalization                     ... YES
All operator combinations                ... NO
Transpose (ia|K)                         ... NO
Integral generator used                  ... LIBINT
Starting integral generation + trafo... 
Half trafo (segmented) done. Total time =  1.9 sec. integrals=  0.6 sec trafo=  0.9 sec
Integral generation and half transformation done (  1.9 sec)

Reading or making V^(-1/2)          ... done (  0.3 sec)
Sorting IAK integrals               ... done (  3.6 sec)

SHARK RI integral transformation done. Total time =  5.8 sec.

Opening buffers                              ... done

Starting loop over batches of integrals:

Operator 0  - window                       ... (  0- 52)x( 53-1211)
Operator 0  - Memory available             ...  4096 MB
Operator 0  - Memory needed per MO         ...  24.9 MB
Operator 0  - Number of orbitals per batch ... 1
Operator 0  - Number of batches            ... 1

OPERATOR  0   PASS   0:  MOs     0 ...    0 +    1 ...    1 +    2 ...    2 +    3 ...    3
                            +    4 ...    4 +    5 ...    5 +    6 ...    6 +    7 ...    7
                            +    8 ...    8 +    9 ...    9 +   10 ...   10 +   11 ...   11
                            +   12 ...   12 +   13 ...   13 +   14 ...   14 +   15 ...   15
                            +   16 ...   16 +   17 ...   17 +   18 ...   18 +   19 ...   19
                            +   20 ...   20 +   21 ...   21 +   22 ...   22 +   23 ...   23
                            +   24 ...   24 +   25 ...   25 +   26 ...   26 +   27 ...   27
                            +   28 ...   28 +   29 ...   29 +   30 ...   30 +   31 ...   31
                            +   32 ...   32 +   33 ...   33 +   34 ...   34 +   35 ...   35
                            +   36 ...   36 +   37 ...   37 +   38 ...   38 +   39 ...   39
                            +   40 ...   40 +   41 ...   41 +   42 ...   42 +   43 ...   43
                            +   44 ...   44 +   45 ...   45 +   46 ...   46 +   47 ...   47
                            +   48 ...   48 +   49 ...   49 +   50 ...   50 +   51 ...   51
                            +   52 ...   52
  Reading integrals       ... ok
Time spent in pair loops =     9.561 sec

-----------------------------------------------
 RI-MP2 CORRELATION ENERGY:     -1.581080098 Eh
-----------------------------------------------


-------
TIMINGS
-------

Total time                :   17.053 sec
Integral trafo            :    5.895 sec ( 34.6%)
I/O of integrals          :    0.018 sec (  0.1%)
K(i,j) operators          :    0.137 sec (  0.8%)
T(i,j) pair energies      :    0.029 sec (  0.2%)
V**(-1/2)                 :    1.591 sec (  9.3%)


---------------------------------------
MP2 TOTAL ENERGY:     -615.019662205 Eh
---------------------------------------

Maximum memory used throughout the entire MP2-calculation: 203.1 MB


-------------------------------------------------------------------------------
                          DFT DISPERSION CORRECTION                            
                                                                               
                                DFTD4 V3.4.0                                   
-------------------------------------------------------------------------------
The REV-DSD-PBEP86-2021 functional is recognized
A user input s6-coefficient scaling factor has been recognized
A user input a1-coefficient scaling factor has been recognized
A user input s8-coefficient scaling factor has been recognized
A user input a2-coefficient scaling factor has been recognized
A user input s9-coefficient scaling factor has been recognized
Active option DFTDOPT                   ...         5   

-------------------------   ----------------
Dispersion correction           -0.023818037
-------------------------   ----------------


-------------------------   --------------------
FINAL SINGLE POINT ENERGY      -615.043480241569
-------------------------   --------------------



           ************************************************************
           *        Program running with 104 parallel MPI-processes   *
           *              working on a common directory               *
           ************************************************************

------------------------------------------------------------------------------
                              ORCA PROPERTY CALCULATIONS
------------------------------------------------------------------------------

GBWName                                 ... compas3D_hc_c16h10_0pent_1_qz_riri.gbw
Number of atoms                         ...     26
Number of basis functions               ...   1212
Max core memory                         ...   1024 MB

Electric properties:
Dipole moment                           ... YES
Quadrupole moment                       ...  NO
Static polarizability (Dipole/Dipole)   ...  NO
Static polarizability (Dipole/Quad.)    ...  NO
Static polarizability (Quad./Quad.)     ...  NO
Static polarizability (Velocity)        ...  NO

Atomic electric properties:
Dipole moment                           ...  NO
Quadrupole moment                       ...  NO
Static polarizability                   ...  NO

Choice of electric origin               ... Center of mass
Position of electric origin             ...     0.000145     0.000000     0.000146

General magnetic properties:
Magnetizability                         ...  NO

EPR properties:
g-Tensor (aka g-matrix)                 ...  NO
Zero-Field splitting spin-orbit         ...  NO
Zero-field splitting spin-spin          ...  NO
Hyperfine couplings                     ...  NO (   0 nuclei)
Quadrupole couplings                    ...  NO (   0 nuclei)
Contact density                         ...  NO (   0 nuclei)

NMR properties:
Chemical shifts                         ...  NO (   0 nuclei)
Spin-rotation constants                 ...  NO (   0 nuclei)
Spin-spin couplings                     ...  NO (   0 nuclei,    0 pairs)

Choice of magnetic origin               ... GIAO
Position of magnetic origin             ...     0.000000     0.000000     0.000000

Properties with geometric perturbations:
SCF Hessian                             ...  NO
IR spectrum                             ...  NO
VCD spectrum                            ...  NO
X-ray spectroscopy properties:
SCF XES/XAS/RIXS spectra                ...  NO


-------------
DIPOLE MOMENT
-------------

Method             : SCF
Type of density    : Electron Density
Multiplicity       :   1
Irrep              :   0
Energy             :  -613.4385821068952964 Eh
Relativity type    : 
Basis              : AO
                                X                 Y                 Z
Electronic contribution:      0.000000472       0.000000695       0.000002072
Nuclear contribution   :     -0.000000671      -0.000000643      -0.000002208
                        -----------------------------------------
Total Dipole Moment    :     -0.000000199       0.000000052      -0.000000136
                        -----------------------------------------
Magnitude (a.u.)       :      0.000000246
Magnitude (Debye)      :      0.000000626



--------------------
Rotational spectrum 
--------------------
 
Rotational constants in cm-1:             0.033784             0.018580             0.011988 
Rotational constants in MHz :          1012.822611           557.027993           359.378494 

Dipole components along the rotational axes: 
x,y,z [a.u.] :    -0.000000    -0.000000    -0.000000 
x,y,z [Debye]:    -0.000000    -0.000000    -0.000000 

 

Dipole moment calculation done in   0.3 sec 

Maximum memory used throughout the entire PROP-calculation: 116.1 MB

--------------------------------
SUGGESTED CITATIONS FOR THIS RUN
--------------------------------

Below you find a list of papers that are relevant to this ORCA run
We neither can nor want to force you to cite these papers, but we appreciate if you do
You receive ORCA, which is the product of decades of hard work by many enthusiastic individuals, for free
The only thing we kindly ask in return is that you cite our papers,
We deeply appreciate it, if you show your appreciation for ORCA by not just citing the generic ORCA reference.

Please note that relegating all ORCA citations to the supporting information does *not* help us.
SI sections are not indexed - citations you put there will not count into any citation statistics
But we need these citations in order to attract the funding resources that allow us to do what we are doing

Therefore, if you are a happy ORCA user, please consider citing a few of the papers listed below in the main body of your paper

In addition to the list printed below, the program has created the file compas3D_hc_c16h10_0pent_1_qz_riri.bibtex that contains the list in bibtex format
You can import this file easily into all common literature databanks and citation aid programs


List of essential papers. We consider these as the minimum necessary citations

  1. Neese,F.
     Software update: the ORCA program system, version 5.0
     WIRES Comput. Molec. Sci., 2022 12(1)e1606
     doi.org/10.1002/wcms.1606

List of papers to cite with high priority. The work reported in these papers was absolutely
necessary for this run to complete.
Our perspective: the developers of density functionals and basis sets usually get cited in chemistry papers
Good! But without the algorithms to do something with them, the functionals or basis sets would not do anything.
Hence, in our opinion, the algorithm design and method developments papers are equally worthy of getting cited

  1. Neese,F.
     An improvement of the resolution of the identity approximation for the formation of the Coulomb matrix
     J. Comp. Chem., 2003 24(14)1740-1747
     doi.org/10.1002/jcc.10318
  2. Kossmann,S.; Neese,F.
     Comparison of two efficient approximate Hartee-Fock approaches
     Chem. Phys. Lett., 2009 481 240-243
     doi.org/10.1016/j.cplett.2009.09.073
  3. Neese,F.
     The SHARK Integral Generation and Digestion System
     J. Comp. Chem., 2022  1-16
     doi.org/10.1002/jcc.26942
  4. Caldeweyher,E.; Bannwarth,C.; Grimme,S.
     Extension of the D3 dispersion coefficient model
     J. Chem. Phys., 2017 147 034112
     doi.org/10.1063/1.4993215
  5. Caldeweyher,E.; Ehlert,S.; Hansen,A.; Neugebauer,H.; Spicher,S.; Bannwarth,C.; Grimme,S.
     A generally applicable atomic-charge dependent London dispersion correction
     J. Chem. Phys., 2019 150 154122
     doi.org/10.1063/1.5090222
  6. Caldeweyher,E.; Mewes,J.; Ehlert,S.; Grimme,S.
     Extension and evaluation of the D4 London-dispersion model for periodic systems
     Phys. Chem. Chem. Phys., 2020 22(16)8499-8512
     doi.org/10.1039/D0CP00502A
  7. Wittmann,L.; Gordiy,I.; Friede,M.; Helmich-Paris,B.; Grimme,S.; Hansen,A.; Bursch,M.
     Extension of the D3 and D4 London Dispersion Corrections to the full Actinides Series
     Phys. Chem. Chem. Phys., 2024 26(32)21379-21394
     doi.org/https://doi.org/10.1039/D4CP01514B 

List of suggested additional citations. These are papers that are important in the 'surrounding' of 
of this run, or papers that preceded the highly important papers. If you like your results we are grateful for a citation.

  1. Neese,F.
     The ORCA program system
     WIRES Comput. Molec. Sci., 2012 2(1)73-78
     doi.org/10.1002/wcms.81
  2. Neese,F.
     Software update: the ORCA program system, version 4.0
     WIRES Comput. Molec. Sci., 2018 8(1)1-6
     doi.org/10.1002/wcms.1327
  3. Neese,F.; Wennmohs,F.; Becker,U.; Riplinger,C.
     The ORCA quantum chemistry program package
     J. Chem. Phys., 2020 152 Art. No. L224108
     doi.org/10.1063/5.0004608

List of optional additional citations

  1. Neese,F.
     Approximate second-order SCF convergence for spin unrestricted wavefunctions
     Chem. Phys. Lett., 2000 325(1-3)93-98
     doi.org/10.1016/s0009-2614(00)00662-x

Timings for individual modules:

Sum of individual times          ...      298.487 sec (=   4.975 min)
Startup calculation              ...      126.329 sec (=   2.105 min)  42.3 %
SCF iterations                   ...      119.745 sec (=   1.996 min)  40.1 %
Property calculations            ...       17.624 sec (=   0.294 min)   5.9 %
MP2 module                       ...       34.788 sec (=   0.580 min)  11.7 %
                             ****ORCA TERMINATED NORMALLY****
TOTAL RUN TIME: 0 days 0 hours 5 minutes 31 seconds 585 msec
