
                                 *****************
                                 * O   R   C   A *
                                 *****************

                                            #,                                       
                                            ###                                      
                                            ####                                     
                                            #####                                    
                                            ######                                   
                                           ########,                                 
                                     ,,################,,,,,                         
                               ,,#################################,,                 
                          ,,##########################################,,             
                       ,#########################################, ''#####,          
                    ,#############################################,,   '####,        
                  ,##################################################,,,,####,       
                ,###########''''           ''''###############################       
              ,#####''   ,,,,##########,,,,          '''####'''          '####       
            ,##' ,,,,###########################,,,                        '##       
           ' ,,###''''                  '''############,,,                           
         ,,##''                                '''############,,,,        ,,,,,,###''
      ,#''                                            '''#######################'''  
     '                                                          ''''####''''         
             ,#######,   #######,   ,#######,      ##                                
            ,#'     '#,  ##    ##  ,#'     '#,    #''#        ,####,   ,####,        
            ##       ##  ##   ,#'  ##            #'  '#       #'       #'  '#        
            ##       ##  #######   ##           ,######,      #####,   #    #        
            '#,     ,#'  ##    ##  '#,     ,#' ,#      #,     #,   #   #,  ,#        
             '#######'   ##     ##  '#######'  #'      '#     '####' # '####'        



                #########################################################
                #                        -***-                          #
                #          Department of theory and spectroscopy        #
                #                                                       #
                #                      Frank Neese                      #
                #                                                       #
                #     Directorship, Architecture, Infrastructure        #
                #                    SHARK, DRIVERS                     #
                #        Core code/Algorithms in most modules           #
                #                                                       #
                #        Max Planck Institute fuer Kohlenforschung      #
                #                Kaiser Wilhelm Platz 1                 #
                #                 D-45470 Muelheim/Ruhr                 #
                #                      Germany                          #
                #                                                       #
                #                  All rights reserved                  #
                #                        -***-                          #
                #########################################################


                         Program Version 6.0.1  -  RELEASE   -


 With contributions from (in alphabetic order):
[Max-Planck-Institut fuer Kohlenforschung]                               
  Daniel Aravena         : Magnetic Suceptibility                        
  Michael Atanasov       : Ab Initio Ligand Field Theory (pilot matlab implementation)
  Alexander A. Auer      : GIAO ZORA, VPT2 properties, NMR spectrum      
  Ute Becker             : All parallelization in ORCA, NUMFREQ, NUMCALC 
  Giovanni Bistoni       : ED, misc. LED, open-shell LED, HFLD           
  Martin Brehm           : Molecular dynamics                            
  Dmytro Bykov           : pre 5.0 version of the SCF Hessian            
  Marcos Casanova-Páez   : Triplet and SCS-CIS(D). UHF-(DLPNO)-IP/EA/STEOM-CCSD. UHF-CVS-IP/STEOM-CCSD   
  Vijay G. Chilkuri      : MRCI spin determinant printing, contributions to CSF-ICE 
  Pauline Colinet        : FMM embedding                                 
  Dipayan Datta          : RHF DLPNO-CCSD density                        
  Achintya Kumar Dutta   : EOM-CC, STEOM-CC                              
  Nicolas Foglia         : Exact transition moments, OPA infrastructure, MCD improvements    
  Dmitry Ganyushin       : Spin-Orbit,Spin-Spin,Magnetic field MRCI      
  Miquel Garcia-Rates    : C-PCM and meta-GGA Hessian, CCSD/C-PCM, Gaussian charge scheme 
  Tiago L. C. Gouveia    : GS-ROHF, GS-ROCIS                             
  Yang Guo               : DLPNO-NEVPT2, F12-NEVPT2, CIM, IAO-localization        
  Andreas Hansen         : Spin unrestricted coupled pair/coupled cluster methods 
  Ingolf Harden          : AUTO-CI MPn and infrastructure                
  Benjamin Helmich-Paris : MC-RPA, TRAH-(SCF,CASSCF), AVAS, COSX integrals, SCF dyn. polar. 
  Lee Huntington         : MR-EOM, pCC                                   
  Robert Izsak           : Overlap fitted RIJCOSX, COSX-SCS-MP3, EOM     
  Riya Kayal             : Wick's Theorem for AUTO-CI, AUTO-CI UHF-CCSDT 
  Emily Kempfer          : AUTO-CI, RHF CISDT and CCSDT                  
  Christian Kollmar      : KDIIS, OOCD, Brueckner-CCSD(T), CCSD density, CASPT2, CASPT2-K, improved NEVPT2 
  Axel Koslowski         : Symmetry handling                             
  Simone Kossmann        : meta-GGA functionals, TD-DFT gradient, OOMP2, (MP2 Hessian; deprecated post 5.0) 
  Lucas Lang             : DCDCAS                                        
  Marvin Lechner         : AUTO-CI (C++ implementation), FIC-MRCC        
  Spencer Leger          : CASSCF response                               
  Dagmar Lenk            : GEPOL surface, SMD, ORCA-2-JSON               
  Dimitrios Liakos       : Extrapolation schemes; Compound Job, initial MDCI parallelization 
  Dimitrios Manganas     : Further ROCIS development; embedding schemes. LFT, Crystal Embedding 
  Dimitrios Pantazis     : SARC Basis sets                               
  Anastasios Papadopoulos: AUTO-CI, single reference methods and gradients 
  Taras Petrenko         : pre 6.0 DFT Hessian and TD-DFT gradient, (ASA, deprecated), ECA, 1-Electron XAS/XES, NRVS 
  Peter Pinski           : DLPNO-MP2, DLPNO-MP2 Gradient                 
  Christoph Reimann      : Effective Core Potentials                     
  Marius Retegan         : Local ZFS, SOC                                
  Christoph Riplinger    : Optimizer, TS searches, QM/MM, DLPNO-CCSD(T), (RO)-DLPNO pert. Triples 
  Michael Roemelt        : Original ROCIS implementation                 
  Masaaki Saitow         : Open-shell DLPNO-CCSD energy and density      
  Barbara Sandhoefer     : DKH picture change effects                    
  Kantharuban Sivalingam : CASSCF convergence/infrastructure, NEVPT2 and variants, FIC-MRCI 
  Bernardo de Souza      : ESD, SOC TD-DFT                               
  Georgi L. Stoychev     : AutoAux, RI-MP2 NMR, DLPNO-MP2 response, X2C  
  Van Anh Tran           : RI-MP2 g-tensors                              
  Willem Van den Heuvel  : Paramagnetic NMR                              
  Zikuan Wang            : NOTCH, Electric field optimization            
  Frank Wennmohs         : Technical directorship and infrastructure     
  Hang Xu                : AUTO-CI-Response properties                   
                                                                         
[FACCTs GmbH]                                                            
  Markus Bursch, Miquel Garcia-Rates, Christoph Riplinger, Bernardo de Souza, Georgi L. Stoychev 
                                                                 
  APM, Basis sets (HGBS, AHGBS, def-TZVP (Ac-Lr), def2-XVPD (La-Lu)), CI-OPT, improved COSX, DLPNO-Multilevel,           
  DOCKER, DRACO, updates on ESD, GOAT, IRC, LR-CPCM, MBIS, meta-GGA TD-DFT gradient, ML-optimized integration grids, 
  MM, NACMEs, nearIR, NEB, NEB-TS, NL-DFT gradient (VV10), 2- and 3-layer-ONIOM, interface openCOSMO-RS, QMMM,   
  Crystal-QMMM, SF, symmetry and pop. for TD-DFT, r2SCAN hybrids, SOLVATOR                                   
                                                                         
[Other institutions]                                                     
  V. Asgeirsson          : NEB                                           
  Christoph Bannwarth    : sTDA-DFT, sTD-DFT, PBEh-3c, B97-3c, D3        
  Sebastian Ehlert       : rSCAN, r2SCAN, r2SCAN-3c, D4, dhf basis sets  
  Marvin Friede          : D4 for Fr, Ra, Ac-Lr                          
  Lars Goerigk           : TD-DFT with DH, B97 family of functionals     
  Stefan Grimme          : VdW corrections, initial TS optimization, DFT functionals, gCP, sTDA/sTD-DF 
  Waldemar Hujo          : DFT-NL                                        
  H. Jonsson             : NEB                                           
  Holger Kruse           : gCP                                           
  Marcel Mueller         : wB97X-3c, vDZP basis set                      
  Hagen Neugebauer       : wr2SCAN                                       
  Tobias Risthaus        : range-separated hybrid DFT                    
  Lukas Wittmann         : regularized MP2, r2SCAN double-hybrids, wr2SCAN        
                                                                         
We gratefully acknowledge several colleagues who have allowed us to      
interface, adapt or use parts of their codes:                            
  Ed Valeev, F. Pavosevic, A. Kumar             : LibInt (2-el integral package), F12 methods 
  Garnet Chan, S. Sharma, J. Yang, R. Olivares  : DMRG                   
  Ulf Ekstrom                                   : XCFun DFT Library      
  Mihaly Kallay                                 : mrcc  (arbitrary order and MRCC methods)
  Frank Weinhold                                : gennbo (NPA and NBO analysis)           
  Simon Mueller                                 : openCOSMO-RS                            
  Christopher J. Cramer and Donald G. Truhlar   : smd solvation model                     
  S Lehtola, MJT Oliveira, MAL Marques          : LibXC Library                           
  Liviu Ungur et al                             : ANISO software                          


 Your calculation uses the libint2 library for the computation of 2-el integrals
 For citations please refer to: http://libint.valeyev.net

 Your ORCA version has been built with support for libXC version: 6.2.2
 For citations please refer to: https://libxc.gitlab.io

 This ORCA versions uses:
   CBLAS   interface :  Fast vector & matrix operations
   LAPACKE interface :  Fast linear algebra routines
   SCALAPACK package :  Parallel linear algebra routines
   Shared memory     :  Shared parallel matrices
   BLAS/LAPACK       :  OpenBLAS 0.3.27  USE64BITINT DYNAMIC_ARCH NO_AFFINITY SapphireRapids SINGLE_THREADED
        Core in use  :  SapphireRapids
   Copyright (c) 2011-2014, The OpenBLAS Project


Warning! Weird basis set assignment to AuxC basis!


***************************************
The coordinates will be read from file: /scratch/kx58/rs2200/dhdft/inputs/compas3D-xyzs/hc_c24h14_0pent_13.xyz
***************************************


Your calculation utilizes the atom-pairwise dispersion correction
based on EEQ partial charges (D4)


================================================================================

----- Orbital basis set information -----
Your calculation utilizes the basis: def2-TZVP
   F. Weigend and R. Ahlrichs, Phys. Chem. Chem. Phys. 7, 3297 (2005).

----- AuxC basis set information -----
Your calculation utilizes the auxiliary basis: def2/JK
   H-Ba, Hf-Rn: F. Weigend, J. Comput. Chem. 29, 167 (2008).

----- AuxJK basis set information -----
Your calculation utilizes the auxiliary basis: def2/JK
   H-Ba, Hf-Rn: F. Weigend, J. Comput. Chem. 29, 167 (2008).

================================================================================
                                        WARNINGS
                       Please study these warnings very carefully!
================================================================================


WARNING: No MP2 level density has been requested!
         To calculate MP2 level properties use
         %mp2 Density relaxed end
         or
         %mp2 Density unrelaxed end
         Otherwise for double-hybrid DFT only the energy is correct!

================================================================================
                                       INPUT FILE
================================================================================
NAME = compas3D_hc_c24h14_0pent_13_tz_jkjk.inp
|  1> ! RKS revDSD-PBEP86-D4/2021 defgrid3  RIJK NOPOP NoFrozencore NoUseSym
|  2> 
|  3> %basis
|  4> Basis "def2-TZVP"
|  5> AuxJK "def2/JK"
|  6> AuxC "def2/JK"
|  7> end
|  8> 
|  9> %method
| 10> ScalHFX 0.69
| 11> ScalDFX 0.31
| 12> ScalDFC 0.4038
| 13> ScalLDAC 0.4038
| 14> 
| 15> D4S6 0.4612
| 16> D4S8 0.0
| 17> D4A1 0.44
| 18> D4A2 3.60
| 19> end
| 20> 
| 21> %mp2
| 22> PS 0.5979
| 23> PT 0.0571
| 24> end
| 25> 
| 26> %pal
| 27> nprocs 104
| 28> end
| 29> 
| 30> *XYZFILE 0 1 /scratch/kx58/rs2200/dhdft/inputs/compas3D-xyzs/hc_c24h14_0pent_13.xyz
| 31> 
| 32>                          ****END OF INPUT****
================================================================================

                       ****************************
                       * Single Point Calculation *
                       ****************************

---------------------------------
CARTESIAN COORDINATES (ANGSTROEM)
---------------------------------
  C      0.397835   -0.474342    0.038878
  C     -0.958348   -0.863166   -0.036329
  C     -2.003753    0.107149   -0.236126
  C     -1.648913    1.536337   -0.269335
  C     -0.277845    1.889247   -0.438343
  C      0.747304    0.890254   -0.400753
  C      1.355206   -1.409312    0.522459
  C      0.981801   -2.791467    0.652953
  C     -0.330721   -3.181876    0.395242
  C     -1.320047   -2.243683    0.107360
  C     -2.683587   -2.632980   -0.048728
  C     -3.645424   -1.698151   -0.293657
  C     -3.302941   -0.326676   -0.374021
  C     -2.596507    2.543383   -0.206703
  C     -2.241791    3.894640   -0.368419
  C     -0.940699    4.241001   -0.632669
  C      0.066794    3.247075   -0.693374
  C      1.404934    3.571046   -1.034756
  C      2.342788    2.579488   -1.150418
  C      2.014734    1.245953   -0.834241
  C      2.668186   -1.052348    0.972717
  C      3.558770   -1.989251    1.413182
  C      3.214442   -3.368831    1.430208
  C      1.957089   -3.750694    1.073100
  H     -0.599602   -4.238254    0.467447
  H     -2.937907   -3.691236    0.039758
  H     -4.688280   -1.996556   -0.416540
  H     -4.099606    0.394764   -0.553831
  H     -3.644273    2.295786   -0.037750
  H     -3.014968    4.663045   -0.307852
  H     -0.663362    5.283296   -0.804163
  H      1.661242    4.613049   -1.237683
  H      3.358652    2.816039   -1.473119
  H      2.781541    0.483322   -0.948053
  H      2.944062   -0.002000    1.019567
  H      4.538560   -1.673931    1.777588
  H      3.945556   -4.108410    1.762411
  H      1.657078   -4.799708    1.124992

----------------------------
CARTESIAN COORDINATES (A.U.)
----------------------------
  NO LB      ZA    FRAG     MASS         X           Y           Z
   0 C     6.0000    0    12.011    0.751799   -0.896377    0.073470
   1 C     6.0000    0    12.011   -1.811015   -1.631148   -0.068651
   2 C     6.0000    0    12.011   -3.786544    0.202482   -0.446213
   3 C     6.0000    0    12.011   -3.115994    2.903257   -0.508970
   4 C     6.0000    0    12.011   -0.525052    3.570159   -0.828349
   5 C     6.0000    0    12.011    1.412199    1.682336   -0.757313
   6 C     6.0000    0    12.011    2.560969   -2.663214    0.987304
   7 C     6.0000    0    12.011    1.855335   -5.275108    1.233902
   8 C     6.0000    0    12.011   -0.624972   -6.012874    0.746899
   9 C     6.0000    0    12.011   -2.494528   -4.239945    0.202882
  10 C     6.0000    0    12.011   -5.071244   -4.975611   -0.092082
  11 C     6.0000    0    12.011   -6.888853   -3.209040   -0.554931
  12 C     6.0000    0    12.011   -6.241654   -0.617329   -0.706797
  13 C     6.0000    0    12.011   -4.906686    4.806297   -0.390612
  14 C     6.0000    0    12.011   -4.236371    7.359803   -0.696211
  15 C     6.0000    0    12.011   -1.777663    8.014331   -1.195571
  16 C     6.0000    0    12.011    0.126221    6.136082   -1.310288
  17 C     6.0000    0    12.011    2.654941    6.748299   -1.955405
  18 C     6.0000    0    12.011    4.427228    4.874526   -2.173975
  19 C     6.0000    0    12.011    3.807295    2.354509   -1.576486
  20 C     6.0000    0    12.011    5.042141   -1.988650    1.838168
  21 C     6.0000    0    12.011    6.725101   -3.759140    2.670527
  22 C     6.0000    0    12.011    6.074415   -6.366168    2.702701
  23 C     6.0000    0    12.011    3.698362   -7.087785    2.027866
  24 H     1.0000    0     1.008   -1.133083   -8.009139    0.883347
  25 H     1.0000    0     1.008   -5.551839   -6.975425    0.075132
  26 H     1.0000    0     1.008   -8.859565   -3.772944   -0.787146
  27 H     1.0000    0     1.008   -7.747132    0.745996   -1.046589
  28 H     1.0000    0     1.008   -6.886679    4.338406   -0.071336
  29 H     1.0000    0     1.008   -5.697464    8.811878   -0.581757
  30 H     1.0000    0     1.008   -1.253573    9.983983   -1.519648
  31 H     1.0000    0     1.008    3.139292    8.717399   -2.338882
  32 H     1.0000    0     1.008    6.346933    5.321543   -2.783792
  33 H     1.0000    0     1.008    5.256351    0.913346   -1.791561
  34 H     1.0000    0     1.008    5.563471   -0.003780    1.926702
  35 H     1.0000    0     1.008    8.576635   -3.163270    3.359154
  36 H     1.0000    0     1.008    7.456021   -7.763770    3.330474
  37 H     1.0000    0     1.008    3.131423   -9.070134    2.125927

--------------------------------
INTERNAL COORDINATES (ANGSTROEM)
--------------------------------
 C      0   0   0     0.000000000000     0.00000000     0.00000000
 C      1   0   0     1.412824367835     0.00000000     0.00000000
 C      2   1   0     1.440243448745   121.24666044     0.00000000
 C      3   2   1     1.472954130935   118.81385318   355.80517697
 C      4   3   2     1.425810350230   118.32595174    15.43150621
 C      5   4   3     1.431897237239   120.84078964   351.93216203
 C      1   2   3     1.422876785027   118.88926792   166.42079026
 C      7   1   2     1.437640938485   119.19778336    12.98753735
 C      8   7   1     1.393394871017   119.81780000   355.56657770
 C      9   8   7     1.393502460017   121.21968174   355.19506058
 C     10   9   8     1.426589235776   121.16190111   185.16813799
 C     11  10   9     1.363461083454   120.45195192   178.17767773
 C      3   2   1     1.376630033772   119.11761999   176.56884599
 C      4   3   2     1.384195498767   122.68203515   192.30599782
 C     14   4   3     1.406367680872   121.40963664   186.15070805
 C     15  14   4     1.372091570675   120.25546544     1.90224546
 C     16  15  14     1.416550861974   120.36849439   357.52200772
 C     17  16  15     1.418492097168   121.39958826   176.60201294
 C     18  17  16     1.369720707639   120.05995225   183.25385339
 C      6   5   4     1.385933768722   117.86915884   167.26497256
 C      7   1   2     1.433203320442   124.02197969   196.89826014
 C     21   7   1     1.365626710475   121.86312652   180.83041535
 C     22  21   7     1.422003185954   120.76669106     0.53290372
 C     23  22  21     1.361720311654   119.50537223   356.33753231
 H      9   8   7     1.092448774759   119.37684529   178.17630407
 H     11  10   9     1.091976879363   118.56785554   358.63136941
 H     12  11  10     1.091647346754   120.44495432   179.78575551
 H     13   3   2     1.089716825316   119.85743447   181.72601078
 H     14   4   3     1.089800386182   119.99336655     5.60029948
 H     15  14   4     1.091749323306   119.42253085   180.30878363
 H     16  15  14     1.092110315180   120.79488196   177.23863069
 H     18  17  16     1.092081720419   118.94955383     1.03541071
 H     19  18  17     1.091820623474   120.34379547   176.19447473
 H     20   6   5     1.087452131343   119.84103432   188.30516932
 H     21   7   1     1.086983475034   119.12541353     4.42752570
 H     22  21   7     1.091881992787   119.65082703   181.91303357
 H     23  22  21     1.091725321536   119.91493244   178.52433818
 H     24  23  22     1.092304792335   120.69463136   182.95125071

---------------------------
INTERNAL COORDINATES (A.U.)
---------------------------
 C      0   0   0     0.000000000000     0.00000000     0.00000000
 C      1   0   0     2.669851130538     0.00000000     0.00000000
 C      2   1   0     2.721665684302   121.24666044     0.00000000
 C      3   2   1     2.783479915296   118.81385318   355.80517697
 C      4   3   2     2.694391080845   118.32595174    15.43150621
 C      5   4   3     2.705893630301   120.84078964   351.93216203
 C      1   2   3     2.688847446016   118.88926792   166.42079026
 C      7   1   2     2.716747652651   119.19778336    12.98753735
 C      8   7   1     2.633134702633   119.81780000   355.56657770
 C      9   8   7     2.633338016378   121.21968174   355.19506058
 C     10   9   8     2.695862961217   121.16190111   185.16813799
 C     11  10   9     2.576568041988   120.45195192   178.17767773
 C      3   2   1     2.601453751561   119.11761999   176.56884599
 C      4   3   2     2.615750408476   122.68203515   192.30599782
 C     14   4   3     2.657649760447   121.40963664   186.15070805
 C     15  14   4     2.592877299237   120.25546544     1.90224546
 C     16  15  14     2.676893183901   120.36849439   357.52200772
 C     17  16  15     2.680561586778   121.39958826   176.60201294
 C     18  17  16     2.588397017399   120.05995225   183.25385339
 C      6   5   4     2.619035262638   117.86915884   167.26497256
 C      7   1   2     2.708361769862   124.02197969   196.89826014
 C     21   7   1     2.580660483965   121.86312652   180.83041535
 C     22  21   7     2.687196583017   120.76669106     0.53290372
 C     23  22  21     2.573278460024   119.50537223   356.33753231
 H      9   8   7     2.064428999632   119.37684529   178.17630407
 H     11  10   9     2.063537246569   118.56785554   358.63136941
 H     12  11  10     2.062914520188   120.44495432   179.78575551
 H     13   3   2     2.059266363373   119.85743447   181.72601078
 H     14   4   3     2.059424270525   119.99336655     5.60029948
 H     15  14   4     2.063107227942   119.42253085   180.30878363
 H     16  15  14     2.063789403721   120.79488196   177.23863069
 H     18  17  16     2.063735367454   118.94955383     1.03541071
 H     19  18  17     2.063241965733   120.34379547   176.19447473
 H     20   6   5     2.054986711987   119.84103432   188.30516932
 H     21   7   1     2.054101079912   119.12541353     4.42752570
 H     22  21   7     2.063357936928   119.65082703   181.91303357
 H     23  22  21     2.063061871169   119.91493244   178.52433818
 H     24  23  22     2.064156912283   120.69463136   182.95125071

---------------------
BASIS SET INFORMATION
---------------------
There are 2 groups of distinct atoms

 Group   1 Type C   : 11s6p2d1f contracted to 5s3p2d1f pattern {62111/411/11/1}
 Group   2 Type H   : 5s1p contracted to 3s1p pattern {311/1}

Atom   0C    basis set group =>   1
Atom   1C    basis set group =>   1
Atom   2C    basis set group =>   1
Atom   3C    basis set group =>   1
Atom   4C    basis set group =>   1
Atom   5C    basis set group =>   1
Atom   6C    basis set group =>   1
Atom   7C    basis set group =>   1
Atom   8C    basis set group =>   1
Atom   9C    basis set group =>   1
Atom  10C    basis set group =>   1
Atom  11C    basis set group =>   1
Atom  12C    basis set group =>   1
Atom  13C    basis set group =>   1
Atom  14C    basis set group =>   1
Atom  15C    basis set group =>   1
Atom  16C    basis set group =>   1
Atom  17C    basis set group =>   1
Atom  18C    basis set group =>   1
Atom  19C    basis set group =>   1
Atom  20C    basis set group =>   1
Atom  21C    basis set group =>   1
Atom  22C    basis set group =>   1
Atom  23C    basis set group =>   1
Atom  24H    basis set group =>   2
Atom  25H    basis set group =>   2
Atom  26H    basis set group =>   2
Atom  27H    basis set group =>   2
Atom  28H    basis set group =>   2
Atom  29H    basis set group =>   2
Atom  30H    basis set group =>   2
Atom  31H    basis set group =>   2
Atom  32H    basis set group =>   2
Atom  33H    basis set group =>   2
Atom  34H    basis set group =>   2
Atom  35H    basis set group =>   2
Atom  36H    basis set group =>   2
Atom  37H    basis set group =>   2
---------------------------------
AUXILIARY/C BASIS SET INFORMATION
---------------------------------
There are 2 groups of distinct atoms

 Group   1 Type C   : 14s10p6d2f1g contracted to 10s8p5d1f1g pattern {5111111111/31111111/21111/2/1}
 Group   2 Type H   : 4s2p2d contracted to 2s2p2d pattern {31/11/11}

Atom   0C    basis set group =>   1
Atom   1C    basis set group =>   1
Atom   2C    basis set group =>   1
Atom   3C    basis set group =>   1
Atom   4C    basis set group =>   1
Atom   5C    basis set group =>   1
Atom   6C    basis set group =>   1
Atom   7C    basis set group =>   1
Atom   8C    basis set group =>   1
Atom   9C    basis set group =>   1
Atom  10C    basis set group =>   1
Atom  11C    basis set group =>   1
Atom  12C    basis set group =>   1
Atom  13C    basis set group =>   1
Atom  14C    basis set group =>   1
Atom  15C    basis set group =>   1
Atom  16C    basis set group =>   1
Atom  17C    basis set group =>   1
Atom  18C    basis set group =>   1
Atom  19C    basis set group =>   1
Atom  20C    basis set group =>   1
Atom  21C    basis set group =>   1
Atom  22C    basis set group =>   1
Atom  23C    basis set group =>   1
Atom  24H    basis set group =>   2
Atom  25H    basis set group =>   2
Atom  26H    basis set group =>   2
Atom  27H    basis set group =>   2
Atom  28H    basis set group =>   2
Atom  29H    basis set group =>   2
Atom  30H    basis set group =>   2
Atom  31H    basis set group =>   2
Atom  32H    basis set group =>   2
Atom  33H    basis set group =>   2
Atom  34H    basis set group =>   2
Atom  35H    basis set group =>   2
Atom  36H    basis set group =>   2
Atom  37H    basis set group =>   2
----------------------------------
AUXILIARY/JK BASIS SET INFORMATION
----------------------------------
There are 2 groups of distinct atoms

 Group   1 Type C   : 14s10p6d2f1g contracted to 10s8p5d1f1g pattern {5111111111/31111111/21111/2/1}
 Group   2 Type H   : 4s2p2d contracted to 2s2p2d pattern {31/11/11}

Atom   0C    basis set group =>   1
Atom   1C    basis set group =>   1
Atom   2C    basis set group =>   1
Atom   3C    basis set group =>   1
Atom   4C    basis set group =>   1
Atom   5C    basis set group =>   1
Atom   6C    basis set group =>   1
Atom   7C    basis set group =>   1
Atom   8C    basis set group =>   1
Atom   9C    basis set group =>   1
Atom  10C    basis set group =>   1
Atom  11C    basis set group =>   1
Atom  12C    basis set group =>   1
Atom  13C    basis set group =>   1
Atom  14C    basis set group =>   1
Atom  15C    basis set group =>   1
Atom  16C    basis set group =>   1
Atom  17C    basis set group =>   1
Atom  18C    basis set group =>   1
Atom  19C    basis set group =>   1
Atom  20C    basis set group =>   1
Atom  21C    basis set group =>   1
Atom  22C    basis set group =>   1
Atom  23C    basis set group =>   1
Atom  24H    basis set group =>   2
Atom  25H    basis set group =>   2
Atom  26H    basis set group =>   2
Atom  27H    basis set group =>   2
Atom  28H    basis set group =>   2
Atom  29H    basis set group =>   2
Atom  30H    basis set group =>   2
Atom  31H    basis set group =>   2
Atom  32H    basis set group =>   2
Atom  33H    basis set group =>   2
Atom  34H    basis set group =>   2
Atom  35H    basis set group =>   2
Atom  36H    basis set group =>   2
Atom  37H    basis set group =>   2


           ************************************************************
           *        Program running with 104 parallel MPI-processes   *
           *              working on a common directory               *
           ************************************************************
------------------------------------------------------------------------------
                             ORCA STARTUP CALCULATIONS
                           -- RI-GTO INTEGRALS CHOSEN --
------------------------------------------------------------------------------
------------------------------------------------------------------------------
                   ___                                                        
                  /   \      - P O W E R E D   B Y -                         
                 /     \                                                     
                 |  |  |   _    _      __       _____    __    __             
                 |  |  |  | |  | |    /  \     |  _  \  |  |  /  |          
                  \  \/   | |  | |   /    \    | | | |  |  | /  /          
                 / \  \   | |__| |  /  /\  \   | |_| |  |  |/  /          
                |  |  |   |  __  | /  /__\  \  |    /   |      \           
                |  |  |   | |  | | |   __   |  |    \   |  |\   \          
                \     /   | |  | | |  |  |  |  | |\  \  |  | \   \       
                 \___/    |_|  |_| |__|  |__|  |_| \__\ |__|  \__/        
                                                                              
                      - O R C A' S   B I G   F R I E N D -                    
                                      &                                       
                       - I N T E G R A L  F E E D E R -                       
                                                                              
 v1 FN, 2020, v2 2021, v3 2022-2024                                           
------------------------------------------------------------------------------


----------------------
SHARK INTEGRAL PACKAGE
----------------------

Number of atoms                             ...     38
Number of basis functions                   ...    828
Number of shells                            ...    320
Maximum angular momentum                    ...      3
Integral batch strategy                     ... SHARK/LIBINT Hybrid
RI-J (if used) integral strategy            ... SPLIT-RIJ (Revised 2003 algorithm where possible)
Printlevel                                  ...      1
Contraction scheme used                     ... SEGMENTED contraction
Prescreening option                         ... SCHWARTZ
   Thresh                                   ... 1.000e-10
   Tcut                                     ... 1.000e-11
   Tpresel                                  ... 1.000e-11 
Coulomb Range Separation                    ... NOT USED
Exchange Range Separation                   ... NOT USED
Multipole approximations                    ... NOT USED
Finite Nucleus Model                        ... NOT USED
CABS basis                                  ... NOT available
Auxiliary Coulomb fitting basis             ... NOT available
Auxiliary J/K fitting basis                 ... AVAILABLE
   # of basis functions in Aux-JK           ...   2052
   # of shells in Aux-JK                    ...    684
   Maximum angular momentum in Aux-JK       ...      4
Auxiliary Correlation fitting basis         ... AVAILABLE
   # of basis functions in Aux-C            ...   2052
   # of shells in Aux-C                     ...    684
   Maximum angular momentum in Aux-C        ...      4
Auxiliary 'external' fitting basis          ... NOT available

Checking pre-screening integrals            ... done (  0.0 sec) Dimension = 320
Check shell pair data                       ... done (  0.0 sec)
Shell pair information
Shell pair cut-off parameter TPreSel        ...   1.0e-11
Total number of shell pairs                 ...     51360
Shell pairs after pre-screening             ...     37164
Total number of primitive shell pairs       ...    159900
Primitive shell pairs kept                  ...     76960
          la=0 lb=0:   8952 shell pairs
          la=1 lb=0:  10537 shell pairs
          la=1 lb=1:   3039 shell pairs
          la=2 lb=0:   5491 shell pairs
          la=2 lb=1:   3192 shell pairs
          la=2 lb=2:    875 shell pairs
          la=3 lb=0:   2553 shell pairs
          la=3 lb=1:   1522 shell pairs
          la=3 lb=2:    802 shell pairs
          la=3 lb=3:    201 shell pairs

Calculating one electron integrals          ... done (  0.8 sec)
Calculating RI/JK V-Matrix + Cholesky decomp... done (  0.5 sec)
Calculating RI/C V-Matrix + Cholesky decomp.... done (  0.4 sec)
Calculating Nuclear repulsion               ... done (  0.0 sec) ENN=   1821.423448234853 Eh

Diagonalization of the overlap matrix:
Smallest eigenvalue                        ... 2.726e-06
Time for diagonalization                   ...    0.116 sec
Threshold for overlap eigenvalues          ... 1.000e-07
Number of eigenvalues below threshold      ... 0
Time for construction of square roots      ...    0.052 sec
Total time needed                          ...    0.200 sec

-------------------
DFT GRID GENERATION
-------------------

General Integration Accuracy     IntAcc      ... 4.959
Radial Grid Type                 RadialGrid  ... OptM3 with GC (2021)
Angular Grid (max. ang.)         AngularGrid ... 6 (Lebedev-590)
Angular grid pruning method      GridPruning ... 4 (adaptive)
Weight generation scheme         WeightScheme... mBecke (2022)
Basis function cutoff            BFCut       ... 1.0000e-10
Integration weight cutoff        WCut        ... 1.0000e-14
Partially contracted basis set               ... off
Rotationally invariant grid construction     ... off
Angular grids for H and He will be reduced by one unit

Total number of grid points                  ...   457649
Total number of batches                      ...     7168
Average number of points per batch           ...       63
Average number of grid points per atom       ...    12043
Initializing property integral containers    ... done (  0.0 sec)

SHARK setup successfully completed in   6.8 seconds

Maximum memory used throughout the entire STARTUP-calculation: 119.9 MB


           ************************************************************
           *        Program running with 104 parallel MPI-processes   *
           *              working on a common directory               *
           ************************************************************
-------------------------------------------------------------------------------
                                 ORCA GUESS
                   Start orbitals & Density for SCF / CASSCF
-------------------------------------------------------------------------------

------------
SCF SETTINGS
------------
Hamiltonian:
 Density Functional     Method          .... DFT(GTOs)
 Exchange Functional    Exchange        .... PBE
   PBE kappa parameter   XKappa         ....  0.804000
   PBE mue parameter    XMuePBE         ....  0.219520
 Correlation Functional Correlation     .... P86
 LDA part of GGA corr.  LDAOpt          .... VWN-5
 Gradients option       PostSCFGGA      .... off
 Hybrid DFT is turned on
   Fraction HF Exchange ScalHFX         ....  0.690000
   Scaling of DF-GGA-X  ScalDFX         ....  0.310000
   Scaling of DF-GGA-C  ScalDFC         ....  0.403800
   Scaling of DF-LDA-C  ScalLDAC        ....  0.403800
   Perturbative correction              ....  1.000000
 RI-approximation to the Coulomb term is turned on
   Number of AuxJK basis functions      .... 2052
   RI-JK (J+K treated both via RI)      .... on


General Settings:
 Integral files         IntName         .... compas3D_hc_c24h14_0pent_13_tz_jkjk
 Hartree-Fock type      HFTyp           .... RHF
 Total Charge           Charge          ....    0
 Multiplicity           Mult            ....    1
 Number of Electrons    NEL             ....  158
 Basis Dimension        Dim             ....  828
 Nuclear Repulsion      ENuc            ....   1821.4234482349 Eh

Convergence Acceleration:
 AO-DIIS                CNVDIIS         .... on
   Start iteration      DIISMaxIt       ....    12
   Startup error        DIISStart       ....  0.200000
   # of expansion vecs  DIISMaxEq       ....     5
   Bias factor          DIISBfac        ....   1.050
   Max. coefficient     DIISMaxC        ....  10.000
 MO-DIIS                CNVKDIIS        .... off
 Trust-Rad. Augm. Hess. CNVTRAH         .... auto
   Auto Start mean grad. ratio tolernc. ....  1.125000
   Auto Start start iteration           ....    50
   Auto Start num. interpolation iter.  ....    10
   Max. Number of Micro iterations      ....    24
   Max. Number of Macro iterations      .... Maxiter - #DIIS iter
   Number of Davidson start vectors     ....     2
   Converg. threshold    (grad. norm)   ....   5.000e-05
   Grad. Scal. Fac. for Micro threshold ....   0.100
   Minimum threshold for Micro iter.    ....   1.000e-02
   NR start threshold (gradient norm)   ....   1.000e-04
   Initial trust radius                 ....   0.400
   Minimum AH scaling param. (alpha)    ....   1.000
   Maximum AH scaling param. (alpha)    .... 1000.000
   Quad. conv. algorithm                .... NR
   White noise on init. David. guess    .... on
   Maximum white noise                  ....   0.010
   Pseudo random numbers                .... off
   Inactive MOs                         .... canonical
   Orbital update algorithm             .... Taylor
   Preconditioner                       .... Diag
   Full preconditioner red. dimension   ....   250
 SOSCF                  CNVSOSCF        .... on
   Start iteration      SOSCFMaxIt      ....   150
   Startup grad/error   SOSCFStart      ....  0.003300
   Hessian update       SOSCFHessUp     .... L-BFGS
 Level Shifting         CNVShift        .... on
   Level shift para.    LevelShift      ....    0.2500
   Turn off err/grad.   ShiftErr        ....    0.0010
 Zerner damping         CNVZerner       .... off
 Static damping         CNVDamp         .... on
   Fraction old density DampFac         ....    0.7000
   Max. Damping (<1)    DampMax         ....    0.9800
   Min. Damping (>=0)   DampMin         ....    0.0000
   Turn off err/grad.   DampErr         ....    0.1000

SCF Procedure:
 Maximum # iterations   MaxIter         ....   125
 SCF integral mode      SCFMode         .... Direct
   Integral package                     .... SHARK and LIBINT hybrid scheme
 Reset frequency        DirectResetFreq ....    20
 Integral Threshold     Thresh          ....  1.000e-10 Eh
 Primitive CutOff       TCut            ....  1.000e-11 Eh

Convergence Tolerance:
 Convergence Check Mode ConvCheckMode   .... Total+1el-Energy
 Convergence forced     ConvForced      .... 0
 Energy Change          TolE            ....  1.000e-06 Eh
 1-El. energy change                    ....  1.000e-03 Eh
 Orbital Gradient       TolG            ....  5.000e-05
 Orbital Rotation angle TolX            ....  5.000e-05
 DIIS Error             TolErr          ....  1.000e-06

------------------------------
INITIAL GUESS: MODEL POTENTIAL
------------------------------
Loading Hartree-Fock densities                     ... done
Calculating cut-offs                               ... done
Initializing the effective Hamiltonian             ... done
Setting up the integral package (SHARK)            ... done
Starting the Coulomb interaction                   ... done (   0.1 sec)
Making the grid                                    ... done (   0.3 sec)
Mapping shells                                     ... done
Starting the XC term evaluation                    ... done (   0.1 sec)
  promolecular density results
     # of electrons  =    157.998000085
     EX              =   -126.950181171
     EC              =      0.207356739
     EX+EC           =   -126.742824432
Transforming the Hamiltonian                       ... done (   0.1 sec)
Diagonalizing the Hamiltonian                      ... done (   0.1 sec)
Back transforming the eigenvectors                 ... done (   0.1 sec)
Now organizing SCF variables                       ... done
                      ------------------
                      INITIAL GUESS DONE (   0.9 sec)
                      ------------------
             **** ENERGY FILE WAS UPDATED (compas3D_hc_c24h14_0pent_13_tz_jkjk.en.tmp) ****
Finished Guess after  15.9 sec
Maximum memory used throughout the entire GUESS-calculation: 69.6 MB


           ************************************************************
           *        Program running with 104 parallel MPI-processes   *
           *              working on a common directory               *
           ************************************************************

-------------------------------------------------------------------------------------------
                                      ORCA LEAN-SCF
                              memory conserving SCF solver
-------------------------------------------------------------------------------------------

----------------------------------------D-I-I-S--------------------------------------------
Iteration    Energy (Eh)           Delta-E    RMSDP     MaxDP     DIISErr   Damp  Time(sec)
-------------------------------------------------------------------------------------------
    1    -919.0054898214521018     0.00e+00  9.82e-04  4.51e-02  1.38e-01  0.700   3.9
    2    -918.8143859589672502     1.91e-01  1.03e-03  4.39e-02  1.26e-01  0.700   4.3
                               ***Turning on AO-DIIS***
    3    -918.9205697008114839    -1.06e-01  9.58e-04  5.31e-02  7.78e-02  0.700   4.0
    4    -919.1320721986712670    -2.12e-01  1.94e-03  1.56e-01  3.27e-02  0.000   3.8
    5    -919.4747913393516683    -3.43e-01  4.77e-04  2.17e-02  3.67e-02  0.000   3.9
    6    -919.4887510168964582    -1.40e-02  3.39e-04  2.51e-02  1.62e-02  0.000   3.9
    7    -919.4924000051419171    -3.65e-03  1.47e-04  1.16e-02  5.88e-03  0.000   3.8
                              *** Initializing SOSCF ***
---------------------------------------S-O-S-C-F--------------------------------------
Iteration    Energy (Eh)           Delta-E    RMSDP     MaxDP     MaxGrad    Time(sec)
--------------------------------------------------------------------------------------
    8    -919.4928930614651108    -4.93e-04  6.42e-05  4.58e-03  1.47e-03     5.6
    9    -919.4929408232301284    -4.78e-05  3.42e-05  1.51e-03  2.67e-04     3.7
   10    -919.4929475006879329    -6.68e-06  2.82e-05  1.69e-03  2.22e-04     3.5
   11    -919.4929489372857461    -1.44e-06  1.29e-05  6.10e-04  1.27e-04     3.6
   12    -919.4929496880504303    -7.51e-07  5.31e-06  3.74e-04  1.80e-05     3.7
                 **** Energy Check signals convergence ****

               *****************************************************
               *                     SUCCESS                       *
               *           SCF CONVERGED AFTER  12 CYCLES          *
               *****************************************************

             **** ENERGY FILE WAS UPDATED (compas3D_hc_c24h14_0pent_13_tz_jkjk.en.tmp) ****

----------------
TOTAL SCF ENERGY
----------------

Total Energy       :       -919.49294968805043 Eh          -25020.67519 eV

Components:
Nuclear Repulsion  :       1821.42344823485291 Eh           49563.45178 eV
Electronic Energy  :      -2740.91639792290334 Eh          -74584.12697 eV
One Electron Energy:      -4863.48909804095638 Eh         -132342.26651 eV
Two Electron Energy:       2122.57270011805304 Eh           57758.13954 eV

Virial components:
Potential Energy   :      -1836.30226699595914 Eh          -49968.32503 eV
Kinetic Energy     :        916.80931730790883 Eh           24947.64984 eV
Virial Ratio       :          2.00292714344137

DFT components:
N(Alpha)           :       79.000007818829 electrons
N(Beta)            :       79.000007818829 electrons
N(Total)           :      158.000015637659 electrons
E(X)               :      -40.012860589565 Eh       
E(C)               :       -2.352377447745 Eh       
E(XC)              :      -42.365238037309 Eh       

---------------
SCF CONVERGENCE
---------------

  Last Energy change         ...    7.5076e-07  Tolerance :   1.0000e-06
  Last MAX-Density change    ...    3.7376e-04  Tolerance :   1.0000e-05
  Last RMS-Density change    ...    5.3101e-06  Tolerance :   1.0000e-06
  Last DIIS Error            ...    1.4704e-03  Tolerance :   1.0000e-06
  Last Orbital Gradient      ...    1.8026e-05  Tolerance :   5.0000e-05
  Last Orbital Rotation      ...    7.3080e-05  Tolerance :   5.0000e-05


----------------
ORBITAL ENERGIES
----------------

  NO   OCC          E(Eh)            E(eV) 
   0   2.0000     -10.841770      -295.0196 
   1   2.0000     -10.838602      -294.9334 
   2   2.0000     -10.838431      -294.9287 
   3   2.0000     -10.837361      -294.8996 
   4   2.0000     -10.836312      -294.8710 
   5   2.0000     -10.836022      -294.8632 
   6   2.0000     -10.834326      -294.8170 
   7   2.0000     -10.833503      -294.7946 
   8   2.0000     -10.833397      -294.7917 
   9   2.0000     -10.833065      -294.7827 
  10   2.0000     -10.824985      -294.5628 
  11   2.0000     -10.824935      -294.5615 
  12   2.0000     -10.824905      -294.5606 
  13   2.0000     -10.824674      -294.5543 
  14   2.0000     -10.824411      -294.5472 
  15   2.0000     -10.824121      -294.5393 
  16   2.0000     -10.823998      -294.5359 
  17   2.0000     -10.823872      -294.5325 
  18   2.0000     -10.823509      -294.5226 
  19   2.0000     -10.823480      -294.5219 
  20   2.0000     -10.823446      -294.5209 
  21   2.0000     -10.823028      -294.5096 
  22   2.0000     -10.822798      -294.5033 
  23   2.0000     -10.821874      -294.4781 
  24   2.0000      -1.092662       -29.7328 
  25   2.0000      -1.064638       -28.9703 
  26   2.0000      -1.042690       -28.3730 
  27   2.0000      -1.013197       -27.5705 
  28   2.0000      -0.991114       -26.9696 
  29   2.0000      -0.982208       -26.7272 
  30   2.0000      -0.941476       -25.6189 
  31   2.0000      -0.919556       -25.0224 
  32   2.0000      -0.917622       -24.9698 
  33   2.0000      -0.905978       -24.6529 
  34   2.0000      -0.897246       -24.4153 
  35   2.0000      -0.852097       -23.1867 
  36   2.0000      -0.802542       -21.8383 
  37   2.0000      -0.778128       -21.1739 
  38   2.0000      -0.768571       -20.9139 
  39   2.0000      -0.766814       -20.8661 
  40   2.0000      -0.742344       -20.2002 
  41   2.0000      -0.727559       -19.7979 
  42   2.0000      -0.682967       -18.5845 
  43   2.0000      -0.676239       -18.4014 
  44   2.0000      -0.650923       -17.7125 
  45   2.0000      -0.638833       -17.3835 
  46   2.0000      -0.628528       -17.1031 
  47   2.0000      -0.611557       -16.6413 
  48   2.0000      -0.595554       -16.2058 
  49   2.0000      -0.579684       -15.7740 
  50   2.0000      -0.574594       -15.6355 
  51   2.0000      -0.568579       -15.4718 
  52   2.0000      -0.559558       -15.2264 
  53   2.0000      -0.541324       -14.7302 
  54   2.0000      -0.531361       -14.4591 
  55   2.0000      -0.530589       -14.4380 
  56   2.0000      -0.523308       -14.2399 
  57   2.0000      -0.515568       -14.0293 
  58   2.0000      -0.507443       -13.8082 
  59   2.0000      -0.504240       -13.7211 
  60   2.0000      -0.491967       -13.3871 
  61   2.0000      -0.483384       -13.1535 
  62   2.0000      -0.478171       -13.0117 
  63   2.0000      -0.473947       -12.8967 
  64   2.0000      -0.460789       -12.5387 
  65   2.0000      -0.452305       -12.3078 
  66   2.0000      -0.444426       -12.0934 
  67   2.0000      -0.436047       -11.8654 
  68   2.0000      -0.420899       -11.4532 
  69   2.0000      -0.415385       -11.3032 
  70   2.0000      -0.406347       -11.0573 
  71   2.0000      -0.393823       -10.7165 
  72   2.0000      -0.377548       -10.2736 
  73   2.0000      -0.340717        -9.2714 
  74   2.0000      -0.311912        -8.4876 
  75   2.0000      -0.300317        -8.1720 
  76   2.0000      -0.292131        -7.9493 
  77   2.0000      -0.284061        -7.7297 
  78   2.0000      -0.216068        -5.8795 
  79   0.0000      -0.024029        -0.6539 
  80   0.0000       0.039075         1.0633 
  81   0.0000       0.044798         1.2190 
  82   0.0000       0.061016         1.6603 
  83   0.0000       0.062044         1.6883 
  84   0.0000       0.092616         2.5202 
  85   0.0000       0.112083         3.0499 
  86   0.0000       0.116612         3.1732 
  87   0.0000       0.117315         3.1923 
  88   0.0000       0.128915         3.5080 
  89   0.0000       0.129808         3.5323 
*Only the first 10 virtual orbitals were printed.
-------
TIMINGS
-------

Total SCF time: 0 days 0 hours 1 min 2 sec 

Total time                  ....      62.885 sec
Sum of individual times     ....      62.508 sec  ( 99.4%)

SCF preparation             ....      14.692 sec  ( 23.4%)
Fock matrix formation       ....      38.398 sec  ( 61.1%)
  Startup                   ....       1.417 sec  (  3.7% of F)
  RI-JK                     ....      27.533 sec  ( 71.7% of F)
  XC integration            ....       6.890 sec  ( 17.9% of F)
    XC Preparation          ....       0.000 sec  (  0.0% of XC)
    Basis function eval.    ....       0.484 sec  (  7.0% of XC)
    Density eval.           ....       0.705 sec  ( 10.2% of XC)
    XC-Functional eval.     ....       0.033 sec  (  0.5% of XC)
    XC-Potential eval.      ....       0.971 sec  ( 14.1% of XC)
Diagonalization             ....       0.000 sec  (  0.0%)
Density matrix formation    ....       1.644 sec  (  2.6%)
Total Energy calculation    ....       1.105 sec  (  1.8%)
Population analysis         ....       0.000 sec  (  0.0%)
Orbital Transformation      ....       0.735 sec  (  1.2%)
Orbital Orthonormalization  ....       0.000 sec  (  0.0%)
DIIS solution               ....       4.391 sec  (  7.0%)
SOSCF solution              ....       1.455 sec  (  2.3%)
Finished LeanSCF after  63.3 sec

Maximum memory used throughout the entire LEANSCF-calculation: 155.5 MB


           ************************************************************
           *        Program running with 104 parallel MPI-processes   *
           *              working on a common directory               *
           ************************************************************

------------------------------------------------------------------------------
                                ORCA  MP2 
------------------------------------------------------------------------------


-------------
RI-MP2 ENERGY
-------------
Dimension of the orbital basis            ...  828
Dimension of the AuxC basis               ... 2052
Memory devoted to MP2                     ... 4096 MB   
Data format for matrix containers         ... DOUBLE
Compression type for matrix containers    ... UNCOMPRESSED
Scaling for aa/bb pairs                   ...   5.710e-02
Scaling for ab pairs                      ...   5.979e-01
Overall scaling of the MP2 energy         ...   1.000e+00

-----------------------
SHARK RI TRANSFORMATION
-----------------------

Number of basis functions                ...    828
Number of aux functions                  ...   2052
Number of operators                      ...      1
Generation of IJK                        ... NO
Generation of IAK                        ... YES
Generation of ABK                        ... NO
Orbital Range Operator  0:    0-  78 to   79- 827

Aux basis identifier                     ...   AUXC
Contraction scheme used                  ... SEGMENTED
Do orthogonalization                     ... YES
All operator combinations                ... NO
Transpose (ia|K)                         ... NO
Integral generator used                  ... LIBINT
Starting integral generation + trafo... 
Half trafo (segmented) done. Total time =  0.9 sec. integrals=  0.3 sec trafo=  0.4 sec
Integral generation and half transformation done (  0.9 sec)

Reading or making V^(-1/2)          ... done (  0.1 sec)
Sorting IAK integrals               ... done (  2.0 sec)

SHARK RI integral transformation done. Total time =  3.1 sec.

Opening buffers                              ... done

Starting loop over batches of integrals:

Operator 0  - window                       ... (  0- 78)x( 79-827)
Operator 0  - Memory available             ...  4096 MB
Operator 0  - Memory needed per MO         ...  11.7 MB
Operator 0  - Number of orbitals per batch ... 1
Operator 0  - Number of batches            ... 1

OPERATOR  0   PASS   0:  MOs     0 ...    0 +    1 ...    1 +    2 ...    2 +    3 ...    3
                            +    4 ...    4 +    5 ...    5 +    6 ...    6 +    7 ...    7
                            +    8 ...    8 +    9 ...    9 +   10 ...   10 +   11 ...   11
                            +   12 ...   12 +   13 ...   13 +   14 ...   14 +   15 ...   15
                            +   16 ...   16 +   17 ...   17 +   18 ...   18 +   19 ...   19
                            +   20 ...   20 +   21 ...   21 +   22 ...   22 +   23 ...   23
                            +   24 ...   24 +   25 ...   25 +   26 ...   26 +   27 ...   27
                            +   28 ...   28 +   29 ...   29 +   30 ...   30 +   31 ...   31
                            +   32 ...   32 +   33 ...   33 +   34 ...   34 +   35 ...   35
                            +   36 ...   36 +   37 ...   37 +   38 ...   38 +   39 ...   39
                            +   40 ...   40 +   41 ...   41 +   42 ...   42 +   43 ...   43
                            +   44 ...   44 +   45 ...   45 +   46 ...   46 +   47 ...   47
                            +   48 ...   48 +   49 ...   49 +   50 ...   50 +   51 ...   51
                            +   52 ...   52 +   53 ...   53 +   54 ...   54 +   55 ...   55
                            +   56 ...   56 +   57 ...   57 +   58 ...   58 +   59 ...   59
                            +   60 ...   60 +   61 ...   61 +   62 ...   62 +   63 ...   63
                            +   64 ...   64 +   65 ...   65 +   66 ...   66 +   67 ...   67
                            +   68 ...   68 +   69 ...   69 +   70 ...   70 +   71 ...   71
                            +   72 ...   72 +   73 ...   73 +   74 ...   74 +   75 ...   75
                            +   76 ...   76 +   77 ...   77 +   78 ...   78
  Reading integrals       ... ok
Time spent in pair loops =     4.788 sec

-----------------------------------------------
 RI-MP2 CORRELATION ENERGY:     -2.143191596 Eh
-----------------------------------------------


-------
TIMINGS
-------

Total time                :    8.907 sec
Integral trafo            :    3.175 sec ( 35.7%)
I/O of integrals          :    0.004 sec (  0.0%)
K(i,j) operators          :    0.045 sec (  0.5%)
T(i,j) pair energies      :    0.007 sec (  0.1%)
V**(-1/2)                 :    0.940 sec ( 10.5%)


---------------------------------------
MP2 TOTAL ENERGY:     -921.636141284 Eh
---------------------------------------

Maximum memory used throughout the entire MP2-calculation: 112.7 MB


-------------------------------------------------------------------------------
                          DFT DISPERSION CORRECTION                            
                                                                               
                                DFTD4 V3.4.0                                   
-------------------------------------------------------------------------------
The REV-DSD-PBEP86-2021 functional is recognized
A user input s6-coefficient scaling factor has been recognized
A user input a1-coefficient scaling factor has been recognized
A user input s8-coefficient scaling factor has been recognized
A user input a2-coefficient scaling factor has been recognized
A user input s9-coefficient scaling factor has been recognized
Active option DFTDOPT                   ...         5   

-------------------------   ----------------
Dispersion correction           -0.038350200
-------------------------   ----------------


-------------------------   --------------------
FINAL SINGLE POINT ENERGY      -921.674491483913
-------------------------   --------------------



           ************************************************************
           *        Program running with 104 parallel MPI-processes   *
           *              working on a common directory               *
           ************************************************************

------------------------------------------------------------------------------
                              ORCA PROPERTY CALCULATIONS
------------------------------------------------------------------------------

GBWName                                 ... compas3D_hc_c24h14_0pent_13_tz_jkjk.gbw
Number of atoms                         ...     38
Number of basis functions               ...    828
Max core memory                         ...   1024 MB

Electric properties:
Dipole moment                           ... YES
Quadrupole moment                       ...  NO
Static polarizability (Dipole/Dipole)   ...  NO
Static polarizability (Dipole/Quad.)    ...  NO
Static polarizability (Quad./Quad.)     ...  NO
Static polarizability (Velocity)        ...  NO

Atomic electric properties:
Dipole moment                           ...  NO
Quadrupole moment                       ...  NO
Static polarizability                   ...  NO

Choice of electric origin               ... Center of mass
Position of electric origin             ...    -0.085328    -0.002546    -0.028309

General magnetic properties:
Magnetizability                         ...  NO

EPR properties:
g-Tensor (aka g-matrix)                 ...  NO
Zero-Field splitting spin-orbit         ...  NO
Zero-field splitting spin-spin          ...  NO
Hyperfine couplings                     ...  NO (   0 nuclei)
Quadrupole couplings                    ...  NO (   0 nuclei)
Contact density                         ...  NO (   0 nuclei)

NMR properties:
Chemical shifts                         ...  NO (   0 nuclei)
Spin-rotation constants                 ...  NO (   0 nuclei)
Spin-spin couplings                     ...  NO (   0 nuclei,    0 pairs)

Choice of magnetic origin               ... GIAO
Position of magnetic origin             ...     0.000000     0.000000     0.000000

Properties with geometric perturbations:
SCF Hessian                             ...  NO
IR spectrum                             ...  NO
VCD spectrum                            ...  NO
X-ray spectroscopy properties:
SCF XES/XAS/RIXS spectra                ...  NO


-------------
DIPOLE MOMENT
-------------

Method             : SCF
Type of density    : Electron Density
Multiplicity       :   1
Irrep              :   0
Energy             :  -919.4929496880504303 Eh
Relativity type    : 
Basis              : AO
                                X                 Y                 Z
Electronic contribution:     -1.768582746      -0.034842372      -0.571574037
Nuclear contribution   :      1.755180800       0.054476718       0.584012997
                        -----------------------------------------
Total Dipole Moment    :     -0.013401946       0.019634346       0.012438960
                        -----------------------------------------
Magnitude (a.u.)       :      0.026829972
Magnitude (Debye)      :      0.068196370



--------------------
Rotational spectrum 
--------------------
 
Rotational constants in cm-1:             0.012971             0.007750             0.004992 
Rotational constants in MHz :           388.874490           232.333506           149.641929 

Dipole components along the rotational axes: 
x,y,z [a.u.] :     0.019904    -0.004284     0.017474 
x,y,z [Debye]:     0.050591    -0.010890     0.044415 

 

Dipole moment calculation done in   0.1 sec 

Maximum memory used throughout the entire PROP-calculation: 70.9 MB

--------------------------------
SUGGESTED CITATIONS FOR THIS RUN
--------------------------------

Below you find a list of papers that are relevant to this ORCA run
We neither can nor want to force you to cite these papers, but we appreciate if you do
You receive ORCA, which is the product of decades of hard work by many enthusiastic individuals, for free
The only thing we kindly ask in return is that you cite our papers,
We deeply appreciate it, if you show your appreciation for ORCA by not just citing the generic ORCA reference.

Please note that relegating all ORCA citations to the supporting information does *not* help us.
SI sections are not indexed - citations you put there will not count into any citation statistics
But we need these citations in order to attract the funding resources that allow us to do what we are doing

Therefore, if you are a happy ORCA user, please consider citing a few of the papers listed below in the main body of your paper

In addition to the list printed below, the program has created the file compas3D_hc_c24h14_0pent_13_tz_jkjk.bibtex that contains the list in bibtex format
You can import this file easily into all common literature databanks and citation aid programs


List of essential papers. We consider these as the minimum necessary citations

  1. Neese,F.
     Software update: the ORCA program system, version 5.0
     WIRES Comput. Molec. Sci., 2022 12(1)e1606
     doi.org/10.1002/wcms.1606

List of papers to cite with high priority. The work reported in these papers was absolutely
necessary for this run to complete.
Our perspective: the developers of density functionals and basis sets usually get cited in chemistry papers
Good! But without the algorithms to do something with them, the functionals or basis sets would not do anything.
Hence, in our opinion, the algorithm design and method developments papers are equally worthy of getting cited

  1. Neese,F.
     An improvement of the resolution of the identity approximation for the formation of the Coulomb matrix
     J. Comp. Chem., 2003 24(14)1740-1747
     doi.org/10.1002/jcc.10318
  2. Kossmann,S.; Neese,F.
     Comparison of two efficient approximate Hartee-Fock approaches
     Chem. Phys. Lett., 2009 481 240-243
     doi.org/10.1016/j.cplett.2009.09.073
  3. Neese,F.
     The SHARK Integral Generation and Digestion System
     J. Comp. Chem., 2022  1-16
     doi.org/10.1002/jcc.26942
  4. Caldeweyher,E.; Bannwarth,C.; Grimme,S.
     Extension of the D3 dispersion coefficient model
     J. Chem. Phys., 2017 147 034112
     doi.org/10.1063/1.4993215
  5. Caldeweyher,E.; Ehlert,S.; Hansen,A.; Neugebauer,H.; Spicher,S.; Bannwarth,C.; Grimme,S.
     A generally applicable atomic-charge dependent London dispersion correction
     J. Chem. Phys., 2019 150 154122
     doi.org/10.1063/1.5090222
  6. Caldeweyher,E.; Mewes,J.; Ehlert,S.; Grimme,S.
     Extension and evaluation of the D4 London-dispersion model for periodic systems
     Phys. Chem. Chem. Phys., 2020 22(16)8499-8512
     doi.org/10.1039/D0CP00502A
  7. Wittmann,L.; Gordiy,I.; Friede,M.; Helmich-Paris,B.; Grimme,S.; Hansen,A.; Bursch,M.
     Extension of the D3 and D4 London Dispersion Corrections to the full Actinides Series
     Phys. Chem. Chem. Phys., 2024 26(32)21379-21394
     doi.org/https://doi.org/10.1039/D4CP01514B 

List of suggested additional citations. These are papers that are important in the 'surrounding' of 
of this run, or papers that preceded the highly important papers. If you like your results we are grateful for a citation.

  1. Neese,F.
     The ORCA program system
     WIRES Comput. Molec. Sci., 2012 2(1)73-78
     doi.org/10.1002/wcms.81
  2. Neese,F.
     Software update: the ORCA program system, version 4.0
     WIRES Comput. Molec. Sci., 2018 8(1)1-6
     doi.org/10.1002/wcms.1327
  3. Neese,F.; Wennmohs,F.; Becker,U.; Riplinger,C.
     The ORCA quantum chemistry program package
     J. Chem. Phys., 2020 152 Art. No. L224108
     doi.org/10.1063/5.0004608

List of optional additional citations

  1. Neese,F.
     Approximate second-order SCF convergence for spin unrestricted wavefunctions
     Chem. Phys. Lett., 2000 325(1-3)93-98
     doi.org/10.1016/s0009-2614(00)00662-x

Timings for individual modules:

Sum of individual times          ...      145.682 sec (=   2.428 min)
Startup calculation              ...       22.658 sec (=   0.378 min)  15.6 %
SCF iterations                   ...       81.692 sec (=   1.362 min)  56.1 %
Property calculations            ...       16.084 sec (=   0.268 min)  11.0 %
MP2 module                       ...       25.248 sec (=   0.421 min)  17.3 %
                             ****ORCA TERMINATED NORMALLY****
TOTAL RUN TIME: 0 days 0 hours 2 minutes 52 seconds 781 msec
