
                                 *****************
                                 * O   R   C   A *
                                 *****************

                                            #,                                       
                                            ###                                      
                                            ####                                     
                                            #####                                    
                                            ######                                   
                                           ########,                                 
                                     ,,################,,,,,                         
                               ,,#################################,,                 
                          ,,##########################################,,             
                       ,#########################################, ''#####,          
                    ,#############################################,,   '####,        
                  ,##################################################,,,,####,       
                ,###########''''           ''''###############################       
              ,#####''   ,,,,##########,,,,          '''####'''          '####       
            ,##' ,,,,###########################,,,                        '##       
           ' ,,###''''                  '''############,,,                           
         ,,##''                                '''############,,,,        ,,,,,,###''
      ,#''                                            '''#######################'''  
     '                                                          ''''####''''         
             ,#######,   #######,   ,#######,      ##                                
            ,#'     '#,  ##    ##  ,#'     '#,    #''#        ,####,   ,####,        
            ##       ##  ##   ,#'  ##            #'  '#       #'       #'  '#        
            ##       ##  #######   ##           ,######,      #####,   #    #        
            '#,     ,#'  ##    ##  '#,     ,#' ,#      #,     #,   #   #,  ,#        
             '#######'   ##     ##  '#######'  #'      '#     '####' # '####'        



                #########################################################
                #                        -***-                          #
                #          Department of theory and spectroscopy        #
                #                                                       #
                #                      Frank Neese                      #
                #                                                       #
                #     Directorship, Architecture, Infrastructure        #
                #                    SHARK, DRIVERS                     #
                #        Core code/Algorithms in most modules           #
                #                                                       #
                #        Max Planck Institute fuer Kohlenforschung      #
                #                Kaiser Wilhelm Platz 1                 #
                #                 D-45470 Muelheim/Ruhr                 #
                #                      Germany                          #
                #                                                       #
                #                  All rights reserved                  #
                #                        -***-                          #
                #########################################################


                         Program Version 6.0.1  -  RELEASE   -


 With contributions from (in alphabetic order):
[Max-Planck-Institut fuer Kohlenforschung]                               
  Daniel Aravena         : Magnetic Suceptibility                        
  Michael Atanasov       : Ab Initio Ligand Field Theory (pilot matlab implementation)
  Alexander A. Auer      : GIAO ZORA, VPT2 properties, NMR spectrum      
  Ute Becker             : All parallelization in ORCA, NUMFREQ, NUMCALC 
  Giovanni Bistoni       : ED, misc. LED, open-shell LED, HFLD           
  Martin Brehm           : Molecular dynamics                            
  Dmytro Bykov           : pre 5.0 version of the SCF Hessian            
  Marcos Casanova-Páez   : Triplet and SCS-CIS(D). UHF-(DLPNO)-IP/EA/STEOM-CCSD. UHF-CVS-IP/STEOM-CCSD   
  Vijay G. Chilkuri      : MRCI spin determinant printing, contributions to CSF-ICE 
  Pauline Colinet        : FMM embedding                                 
  Dipayan Datta          : RHF DLPNO-CCSD density                        
  Achintya Kumar Dutta   : EOM-CC, STEOM-CC                              
  Nicolas Foglia         : Exact transition moments, OPA infrastructure, MCD improvements    
  Dmitry Ganyushin       : Spin-Orbit,Spin-Spin,Magnetic field MRCI      
  Miquel Garcia-Rates    : C-PCM and meta-GGA Hessian, CCSD/C-PCM, Gaussian charge scheme 
  Tiago L. C. Gouveia    : GS-ROHF, GS-ROCIS                             
  Yang Guo               : DLPNO-NEVPT2, F12-NEVPT2, CIM, IAO-localization        
  Andreas Hansen         : Spin unrestricted coupled pair/coupled cluster methods 
  Ingolf Harden          : AUTO-CI MPn and infrastructure                
  Benjamin Helmich-Paris : MC-RPA, TRAH-(SCF,CASSCF), AVAS, COSX integrals, SCF dyn. polar. 
  Lee Huntington         : MR-EOM, pCC                                   
  Robert Izsak           : Overlap fitted RIJCOSX, COSX-SCS-MP3, EOM     
  Riya Kayal             : Wick's Theorem for AUTO-CI, AUTO-CI UHF-CCSDT 
  Emily Kempfer          : AUTO-CI, RHF CISDT and CCSDT                  
  Christian Kollmar      : KDIIS, OOCD, Brueckner-CCSD(T), CCSD density, CASPT2, CASPT2-K, improved NEVPT2 
  Axel Koslowski         : Symmetry handling                             
  Simone Kossmann        : meta-GGA functionals, TD-DFT gradient, OOMP2, (MP2 Hessian; deprecated post 5.0) 
  Lucas Lang             : DCDCAS                                        
  Marvin Lechner         : AUTO-CI (C++ implementation), FIC-MRCC        
  Spencer Leger          : CASSCF response                               
  Dagmar Lenk            : GEPOL surface, SMD, ORCA-2-JSON               
  Dimitrios Liakos       : Extrapolation schemes; Compound Job, initial MDCI parallelization 
  Dimitrios Manganas     : Further ROCIS development; embedding schemes. LFT, Crystal Embedding 
  Dimitrios Pantazis     : SARC Basis sets                               
  Anastasios Papadopoulos: AUTO-CI, single reference methods and gradients 
  Taras Petrenko         : pre 6.0 DFT Hessian and TD-DFT gradient, (ASA, deprecated), ECA, 1-Electron XAS/XES, NRVS 
  Peter Pinski           : DLPNO-MP2, DLPNO-MP2 Gradient                 
  Christoph Reimann      : Effective Core Potentials                     
  Marius Retegan         : Local ZFS, SOC                                
  Christoph Riplinger    : Optimizer, TS searches, QM/MM, DLPNO-CCSD(T), (RO)-DLPNO pert. Triples 
  Michael Roemelt        : Original ROCIS implementation                 
  Masaaki Saitow         : Open-shell DLPNO-CCSD energy and density      
  Barbara Sandhoefer     : DKH picture change effects                    
  Kantharuban Sivalingam : CASSCF convergence/infrastructure, NEVPT2 and variants, FIC-MRCI 
  Bernardo de Souza      : ESD, SOC TD-DFT                               
  Georgi L. Stoychev     : AutoAux, RI-MP2 NMR, DLPNO-MP2 response, X2C  
  Van Anh Tran           : RI-MP2 g-tensors                              
  Willem Van den Heuvel  : Paramagnetic NMR                              
  Zikuan Wang            : NOTCH, Electric field optimization            
  Frank Wennmohs         : Technical directorship and infrastructure     
  Hang Xu                : AUTO-CI-Response properties                   
                                                                         
[FACCTs GmbH]                                                            
  Markus Bursch, Miquel Garcia-Rates, Christoph Riplinger, Bernardo de Souza, Georgi L. Stoychev 
                                                                 
  APM, Basis sets (HGBS, AHGBS, def-TZVP (Ac-Lr), def2-XVPD (La-Lu)), CI-OPT, improved COSX, DLPNO-Multilevel,           
  DOCKER, DRACO, updates on ESD, GOAT, IRC, LR-CPCM, MBIS, meta-GGA TD-DFT gradient, ML-optimized integration grids, 
  MM, NACMEs, nearIR, NEB, NEB-TS, NL-DFT gradient (VV10), 2- and 3-layer-ONIOM, interface openCOSMO-RS, QMMM,   
  Crystal-QMMM, SF, symmetry and pop. for TD-DFT, r2SCAN hybrids, SOLVATOR                                   
                                                                         
[Other institutions]                                                     
  V. Asgeirsson          : NEB                                           
  Christoph Bannwarth    : sTDA-DFT, sTD-DFT, PBEh-3c, B97-3c, D3        
  Sebastian Ehlert       : rSCAN, r2SCAN, r2SCAN-3c, D4, dhf basis sets  
  Marvin Friede          : D4 for Fr, Ra, Ac-Lr                          
  Lars Goerigk           : TD-DFT with DH, B97 family of functionals     
  Stefan Grimme          : VdW corrections, initial TS optimization, DFT functionals, gCP, sTDA/sTD-DF 
  Waldemar Hujo          : DFT-NL                                        
  H. Jonsson             : NEB                                           
  Holger Kruse           : gCP                                           
  Marcel Mueller         : wB97X-3c, vDZP basis set                      
  Hagen Neugebauer       : wr2SCAN                                       
  Tobias Risthaus        : range-separated hybrid DFT                    
  Lukas Wittmann         : regularized MP2, r2SCAN double-hybrids, wr2SCAN        
                                                                         
We gratefully acknowledge several colleagues who have allowed us to      
interface, adapt or use parts of their codes:                            
  Ed Valeev, F. Pavosevic, A. Kumar             : LibInt (2-el integral package), F12 methods 
  Garnet Chan, S. Sharma, J. Yang, R. Olivares  : DMRG                   
  Ulf Ekstrom                                   : XCFun DFT Library      
  Mihaly Kallay                                 : mrcc  (arbitrary order and MRCC methods)
  Frank Weinhold                                : gennbo (NPA and NBO analysis)           
  Simon Mueller                                 : openCOSMO-RS                            
  Christopher J. Cramer and Donald G. Truhlar   : smd solvation model                     
  S Lehtola, MJT Oliveira, MAL Marques          : LibXC Library                           
  Liviu Ungur et al                             : ANISO software                          


 Your calculation uses the libint2 library for the computation of 2-el integrals
 For citations please refer to: http://libint.valeyev.net

 Your ORCA version has been built with support for libXC version: 6.2.2
 For citations please refer to: https://libxc.gitlab.io

 This ORCA versions uses:
   CBLAS   interface :  Fast vector & matrix operations
   LAPACKE interface :  Fast linear algebra routines
   SCALAPACK package :  Parallel linear algebra routines
   Shared memory     :  Shared parallel matrices
   BLAS/LAPACK       :  OpenBLAS 0.3.27  USE64BITINT DYNAMIC_ARCH NO_AFFINITY SapphireRapids SINGLE_THREADED
        Core in use  :  SapphireRapids
   Copyright (c) 2011-2014, The OpenBLAS Project


Warning! Weird basis set assignment to AuxJK basis!


***************************************
The coordinates will be read from file: /g/data/kx58/rs2200/dhdft/inputs/compas3x-xyzs/hc_c32h18_0pent_1.xyz
***************************************


Your calculation utilizes the atom-pairwise dispersion correction
based on EEQ partial charges (D4)


================================================================================

----- Orbital basis set information -----
Your calculation utilizes the basis: def2-QZVPP
   F. Weigend and R. Ahlrichs, Phys. Chem. Chem. Phys. 7, 3297 (2005).

----- AuxC basis set information -----
Your calculation utilizes the auxiliary basis: def2-QZVPP/C
  H-La, Hf-Rn : A. Hellweg, C. Hattig, S. Hofener and W. Klopper, Theor. Chem. Acc. 117, 587 (2007).
        Ce-Lu : J. Chmela and M. E. Harding, Mol. Phys. (2018).

----- AuxJK basis set information -----
Your calculation utilizes the auxiliary basis: def2-QZVPP/C
  H-La, Hf-Rn : A. Hellweg, C. Hattig, S. Hofener and W. Klopper, Theor. Chem. Acc. 117, 587 (2007).
        Ce-Lu : J. Chmela and M. E. Harding, Mol. Phys. (2018).

================================================================================
                                        WARNINGS
                       Please study these warnings very carefully!
================================================================================


WARNING: No MP2 level density has been requested!
         To calculate MP2 level properties use
         %mp2 Density relaxed end
         or
         %mp2 Density unrelaxed end
         Otherwise for double-hybrid DFT only the energy is correct!

================================================================================
                                       INPUT FILE
================================================================================
NAME = compas3x_hc_c32h18_0pent_1_qz_riri.inp
|  1> ! RKS revDSD-PBEP86-D4/2021 defgrid3  RIJK NOPOP NoFrozencore NoUseSym
|  2> 
|  3> %basis
|  4> Basis "def2-QZVPP"
|  5> AuxJK "def2-QZVPP/C"
|  6> AuxC "def2-QZVPP/C"
|  7> end
|  8> 
|  9> %method
| 10> ScalHFX 0.69
| 11> ScalDFX 0.31
| 12> ScalDFC 0.4038
| 13> ScalLDAC 0.4038
| 14> 
| 15> D4S6 0.4612
| 16> D4S8 0.0
| 17> D4A1 0.44
| 18> D4A2 3.60
| 19> end
| 20> 
| 21> %mp2
| 22> PS 0.5979
| 23> PT 0.0571
| 24> 
| 25> end
| 26> 
| 27> %pal
| 28> nprocs 104
| 29> end
| 30> 
| 31> *XYZFILE 0 1 /g/data/kx58/rs2200/dhdft/inputs/compas3x-xyzs/hc_c32h18_0pent_1.xyz
| 32> 
| 33>                          ****END OF INPUT****
================================================================================

                       ****************************
                       * Single Point Calculation *
                       ****************************

---------------------------------
CARTESIAN COORDINATES (ANGSTROEM)
---------------------------------
  C      2.344529   -0.031389   -0.541603
  C      1.413032   -1.097600   -0.498785
  C      0.026205   -0.810035   -0.318486
  C     -0.386060    0.515546   -0.117319
  C      0.600531    1.474836    0.311192
  C      1.939588    1.259834   -0.035791
  C      3.638526   -0.293542   -0.997307
  C      4.016111   -1.569830   -1.353759
  C      3.132105   -2.626834   -1.226363
  C      1.830639   -2.418019   -0.783749
  C      0.885547   -3.510137   -0.617238
  C     -0.485478   -3.230795   -0.455629
  C     -0.942713   -1.850639   -0.444444
  C     -2.272687   -1.508330   -0.530076
  C     -2.685697   -0.166160   -0.601296
  C     -1.734526    0.870418   -0.421201
  C      0.267546    2.597081    1.139129
  C      1.220156    3.629302    1.320157
  C      2.510252    3.475058    0.761123
  C      2.872977    2.305163    0.172885
  C      1.309827   -4.842699   -0.584591
  C      0.417222   -5.877144   -0.418095
  C     -0.935207   -5.602374   -0.267398
  C     -1.373142   -4.297574   -0.280439
  C     -4.028095    0.167074   -0.882641
  C     -4.404918    1.468026   -1.057473
  C     -3.443365    2.486560   -0.988278
  C     -2.143581    2.196323   -0.677384
  C     -0.928470    2.669360    1.882190
  C     -1.210219    3.755876    2.666020
  C     -0.312023    4.826618    2.749021
  C      0.890053    4.753266    2.100546
  H      4.358163    0.503641   -1.091284
  H      5.014530   -1.750225   -1.725011
  H      3.461859   -3.613735   -1.509188
  H     -3.035969   -2.265135   -0.623027
  H      3.224008    4.278603    0.873834
  H      3.895098    2.176857   -0.144747
  H      2.360091   -5.074315   -0.666159
  H      0.770040   -6.897657   -0.392614
  H     -1.640318   -6.408227   -0.125906
  H     -2.423086   -4.104365   -0.127563
  H     -4.747559   -0.633304   -0.983548
  H     -5.432251    1.716966   -1.279517
  H     -3.733977    3.506676   -1.191860
  H     -1.411252    2.988384   -0.656645
  H     -1.620099    1.841718    1.854451
  H     -2.128788    3.786103    3.233466
  H     -0.559137    5.688489    3.351312
  H      1.618983    5.545289    2.199089

----------------------------
CARTESIAN COORDINATES (A.U.)
----------------------------
  NO LB      ZA    FRAG     MASS         X           Y           Z
   0 C     6.0000    0    12.011    4.430518   -0.059317   -1.023481
   1 C     6.0000    0    12.011    2.670244   -2.074164   -0.942567
   2 C     6.0000    0    12.011    0.049521   -1.530744   -0.601851
   3 C     6.0000    0    12.011   -0.729547    0.974240   -0.221701
   4 C     6.0000    0    12.011    1.134838    2.787036    0.588068
   5 C     6.0000    0    12.011    3.665291    2.380741   -0.067634
   6 C     6.0000    0    12.011    6.875817   -0.554714   -1.884637
   7 C     6.0000    0    12.011    7.589349   -2.966549   -2.558234
   8 C     6.0000    0    12.011    5.918820   -4.963997   -2.317491
   9 C     6.0000    0    12.011    3.459406   -4.569394   -1.481071
  10 C     6.0000    0    12.011    1.673441   -6.633198   -1.166410
  11 C     6.0000    0    12.011   -0.917420   -6.105317   -0.861013
  12 C     6.0000    0    12.011   -1.781470   -3.497201   -0.839877
  13 C     6.0000    0    12.011   -4.294756   -2.850331   -1.001698
  14 C     6.0000    0    12.011   -5.075232   -0.313997   -1.136284
  15 C     6.0000    0    12.011   -3.277779    1.644852   -0.795955
  16 C     6.0000    0    12.011    0.505589    4.907772    2.152642
  17 C     6.0000    0    12.011    2.305760    6.858386    2.494736
  18 C     6.0000    0    12.011    4.743689    6.566907    1.438314
  19 C     6.0000    0    12.011    5.429139    4.356126    0.326705
  20 C     6.0000    0    12.011    2.475214   -9.151375   -1.104717
  21 C     6.0000    0    12.011    0.788435  -11.106192   -0.790084
  22 C     6.0000    0    12.011   -1.767285  -10.586953   -0.505308
  23 C     6.0000    0    12.011   -2.594861   -8.121238   -0.529954
  24 C     6.0000    0    12.011   -7.611996    0.315724   -1.667950
  25 C     6.0000    0    12.011   -8.324089    2.774167   -1.998334
  26 C     6.0000    0    12.011   -6.507016    4.698918   -1.867575
  27 C     6.0000    0    12.011   -4.050780    4.150449   -1.280070
  28 C     6.0000    0    12.011   -1.754555    5.044360    3.556824
  29 C     6.0000    0    12.011   -2.286982    7.097578    5.038049
  30 C     6.0000    0    12.011   -0.589639    9.120987    5.194896
  31 C     6.0000    0    12.011    1.681957    8.982370    3.969456
  32 H     1.0000    0     1.008    8.235735    0.951744   -2.062228
  33 H     1.0000    0     1.008    9.476088   -3.307446   -3.259798
  34 H     1.0000    0     1.008    6.541965   -6.828970   -2.851952
  35 H     1.0000    0     1.008   -5.737150   -4.280485   -1.177351
  36 H     1.0000    0     1.008    6.092491    8.085387    1.651306
  37 H     1.0000    0     1.008    7.360669    4.113663   -0.273532
  38 H     1.0000    0     1.008    4.459925   -9.589065   -1.258859
  39 H     1.0000    0     1.008    1.455164  -13.034682   -0.741933
  40 H     1.0000    0     1.008   -3.099751  -12.109794   -0.237929
  41 H     1.0000    0     1.008   -4.578969   -7.756125   -0.241059
  42 H     1.0000    0     1.008   -8.971587   -1.196772   -1.858636
  43 H     1.0000    0     1.008  -10.265466    3.244595   -2.417937
  44 H     1.0000    0     1.008   -7.056194    6.626657   -2.252288
  45 H     1.0000    0     1.008   -2.666880    5.647227   -1.240880
  46 H     1.0000    0     1.008   -3.061543    3.480343    3.504404
  47 H     1.0000    0     1.008   -4.022827    7.154698    6.110366
  48 H     1.0000    0     1.008   -1.056615   10.749686    6.333061
  49 H     1.0000    0     1.008    3.059435   10.479077    4.155675

--------------------------------
INTERNAL COORDINATES (ANGSTROEM)
--------------------------------
 C      0   0   0     0.000000000000     0.00000000     0.00000000
 C      1   0   0     1.416448447972     0.00000000     0.00000000
 C      2   1   0     1.427757010991   119.40532546     0.00000000
 C      3   2   1     1.402709401747   119.59901094   356.71590474
 C      4   3   2     1.441256381808   118.06319510   341.04596763
 C      5   4   3     1.399892408342   118.61150218    27.50668065
 C      1   2   3     1.396716326137   118.54471330   193.44892151
 C      7   1   2     1.377875275354   120.80645104   357.77306522
 C      8   7   1     1.383818488346   120.57344293   357.90742234
 C      9   8   7     1.390440530349   120.83267795     2.38871245
 C     10   9   8     1.453838482727   122.14837932   181.09157111
 C     11  10   9     1.408494992402   119.79721262   193.97271521
 C      3   2   1     1.427419290976   120.08983751   171.93687500
 C     13   3   2     1.375986523863   118.70009929   192.71367785
 C     14  13   3     1.406083642335   121.63633986     5.03642026
 C     15  14  13     1.418328030155   119.61760409   352.32065802
 C      5   4   3     1.433803341383   122.25382713   210.99992293
 C     17   5   4     1.416232983646   119.21397718   191.58165724
 C     18  17   5     1.414446940281   118.91434105   355.25285723
 C     19  18  17     1.358766750820   120.56244254   353.68524426
 C     11  10   9     1.398856954538   121.40604277    15.36197580
 C     21  11  10     1.376423288223   121.47045956   179.56126731
 C     22  21  11     1.388262085903   119.74493724   359.46688378
 C     23  22  21     1.376394009788   119.77282112   359.75291034
 C     15  14  13     1.411464295990   120.98498361   170.72948433
 C     25  15  14     1.365663876211   120.85363894   185.30348033
 C     26  25  15     1.402421275826   119.75892314     1.49926852
 C     27  26  25     1.367600545387   120.57885809   356.52821842
 C     17   5   4     1.409900182054   122.78327567    17.29844473
 C     29  17   5     1.369047030549   121.13188206   179.76814424
 C     30  29  17     1.400047427402   120.58873770   359.97668401
 C     31  30  29     1.367804302425   119.64958281   356.33573112
 H      7   1   2     1.078058799241   120.53656989   176.83488616
 H      8   7   1     1.080375267863   119.78894254   178.63874230
 H      9   8   7     1.078286336392   118.65868397   180.34635775
 H     14  13   3     1.078884897402   120.97540458   180.19564686
 H     19  18  17     1.080664193821   118.69232444   178.03523021
 H     20  19  18     1.078000688671   118.89139080   186.81947617
 H     21  11  10     1.078588542811   119.87687543     1.11403628
 H     22  21  11     1.080081877060   120.07367677   180.22494434
 H     23  22  21     1.080092251782   120.16714744   180.64404674
 H     24  23  22     1.078463859437   118.57127205   182.09126470
 H     25  15  14     1.080933435920   118.47792523     3.65901201
 H     26  25  15     1.080132911805   120.55110140   179.56472869
 H     27  26  25     1.080063247411   119.48351035   175.96489432
 H     28  27  26     1.078932529977   119.58195422   178.23137297
 H     29  17   5     1.078939926392   119.40017658     1.53695311
 H     30  29  17     1.080128859087   119.86833339   180.52804585
 H     31  30  29     1.080111329180   119.77150886   178.42291497
 H     32  31  30     1.080902307672   120.67345961   183.50838956

---------------------------
INTERNAL COORDINATES (A.U.)
---------------------------
 C      0   0   0     0.000000000000     0.00000000     0.00000000
 C      1   0   0     2.676699649485     0.00000000     0.00000000
 C      2   1   0     2.698069736560   119.40532546     0.00000000
 C      3   2   1     2.650736614779   119.59901094   356.71590474
 C      4   3   2     2.723579850382   118.06319510   341.04596763
 C      5   4   3     2.645413268721   118.61150218    27.50668065
 C      1   2   3     2.639411343176   118.54471330   193.44892151
 C      7   1   2     2.603806917121   120.80645104   357.77306522
 C      8   7   1     2.615037962032   120.57344293   357.90742234
 C      9   8   7     2.627551807864   120.83267795     2.38871245
 C     10   9   8     2.747356575310   122.14837932   181.09157111
 C     11  10   9     2.661669796639   119.79721262   193.97271521
 C      3   2   1     2.697431538220   120.08983751   171.93687500
 C     13   3   2     2.600237694067   118.70009929   192.71367785
 C     14  13   3     2.657113005399   121.63633986     5.03642026
 C     15  14  13     2.680251545056   119.61760409   352.32065802
 C      5   4   3     2.709495645115   122.25382713   210.99992293
 C     17   5   4     2.676292480917   119.21397718   191.58165724
 C     18  17   5     2.672917348093   118.91434105   355.25285723
 C     19  18  17     2.567697038927   120.56244254   353.68524426
 C     11  10   9     2.643456544608   121.40604277    15.36197580
 C     21  11  10     2.601063059093   121.47045956   179.56126731
 C     22  21  11     2.623435144462   119.74493724   359.46688378
 C     23  22  21     2.601007730869   119.77282112   359.75291034
 C     15  14  13     2.667280967229   120.98498361   170.72948433
 C     25  15  14     2.580730717029   120.85363894   185.30348033
 C     26  25  15     2.650192135696   119.75892314     1.49926852
 C     27  26  25     2.584390491383   120.57885809   356.52821842
 C     17   5   4     2.664325220248   122.78327567    17.29844473
 C     29  17   5     2.587123952196   121.13188206   179.76814424
 C     30  29  17     2.645706212291   120.58873770   359.97668401
 C     31  30  29     2.584775536382   119.64958281   356.33573112
 H      7   1   2     2.037235886829   120.53656989   176.83488616
 H      8   7   1     2.041613378122   119.78894254   178.63874230
 H      9   8   7     2.037665869730   118.65868397   180.34635775
 H     14  13   3     2.038796986114   120.97540458   180.19564686
 H     19  18  17     2.042159369056   118.69232444   178.03523021
 H     20  19  18     2.037126073767   118.89139080   186.81947617
 H     21  11  10     2.038236957098   119.87687543     1.11403628
 H     22  21  11     2.041058949854   120.07367677   180.22494434
 H     23  22  21     2.041078555238   120.16714744   180.64404674
 H     24  23  22     2.038001339667   118.57127205   182.09126470
 H     25  15  14     2.042668162888   118.47792523     3.65901201
 H     26  25  15     2.041155391545   120.55110140   179.56472869
 H     27  26  25     2.041023744920   119.48351035   175.96489432
 H     28  27  26     2.038886998635   119.58195422   178.23137297
 H     29  17   5     2.038900975835   119.40017658     1.53695311
 H     30  29  17     2.041147733020   119.86833339   180.52804585
 H     31  30  29     2.041114606295   119.77150886   178.42291497
 H     32  31  30     2.042609339024   120.67345961   183.50838956

---------------------
BASIS SET INFORMATION
---------------------
There are 2 groups of distinct atoms

 Group   1 Type C   : 15s8p3d2f1g contracted to 7s4p3d2f1g pattern {8211111/5111/111/11/1}
 Group   2 Type H   : 7s3p2d1f contracted to 4s3p2d1f pattern {4111/111/11/1}

Atom   0C    basis set group =>   1
Atom   1C    basis set group =>   1
Atom   2C    basis set group =>   1
Atom   3C    basis set group =>   1
Atom   4C    basis set group =>   1
Atom   5C    basis set group =>   1
Atom   6C    basis set group =>   1
Atom   7C    basis set group =>   1
Atom   8C    basis set group =>   1
Atom   9C    basis set group =>   1
Atom  10C    basis set group =>   1
Atom  11C    basis set group =>   1
Atom  12C    basis set group =>   1
Atom  13C    basis set group =>   1
Atom  14C    basis set group =>   1
Atom  15C    basis set group =>   1
Atom  16C    basis set group =>   1
Atom  17C    basis set group =>   1
Atom  18C    basis set group =>   1
Atom  19C    basis set group =>   1
Atom  20C    basis set group =>   1
Atom  21C    basis set group =>   1
Atom  22C    basis set group =>   1
Atom  23C    basis set group =>   1
Atom  24C    basis set group =>   1
Atom  25C    basis set group =>   1
Atom  26C    basis set group =>   1
Atom  27C    basis set group =>   1
Atom  28C    basis set group =>   1
Atom  29C    basis set group =>   1
Atom  30C    basis set group =>   1
Atom  31C    basis set group =>   1
Atom  32H    basis set group =>   2
Atom  33H    basis set group =>   2
Atom  34H    basis set group =>   2
Atom  35H    basis set group =>   2
Atom  36H    basis set group =>   2
Atom  37H    basis set group =>   2
Atom  38H    basis set group =>   2
Atom  39H    basis set group =>   2
Atom  40H    basis set group =>   2
Atom  41H    basis set group =>   2
Atom  42H    basis set group =>   2
Atom  43H    basis set group =>   2
Atom  44H    basis set group =>   2
Atom  45H    basis set group =>   2
Atom  46H    basis set group =>   2
Atom  47H    basis set group =>   2
Atom  48H    basis set group =>   2
Atom  49H    basis set group =>   2
---------------------------------
AUXILIARY/C BASIS SET INFORMATION
---------------------------------
There are 2 groups of distinct atoms

 Group   1 Type C   : 9s8p7d5f3g1h contracted to 9s8p7d5f3g1h pattern {111111111/11111111/1111111/11111/111/1}
 Group   2 Type H   : 6s4p3d2f1g contracted to 6s4p3d2f1g pattern {111111/1111/111/11/1}

Atom   0C    basis set group =>   1
Atom   1C    basis set group =>   1
Atom   2C    basis set group =>   1
Atom   3C    basis set group =>   1
Atom   4C    basis set group =>   1
Atom   5C    basis set group =>   1
Atom   6C    basis set group =>   1
Atom   7C    basis set group =>   1
Atom   8C    basis set group =>   1
Atom   9C    basis set group =>   1
Atom  10C    basis set group =>   1
Atom  11C    basis set group =>   1
Atom  12C    basis set group =>   1
Atom  13C    basis set group =>   1
Atom  14C    basis set group =>   1
Atom  15C    basis set group =>   1
Atom  16C    basis set group =>   1
Atom  17C    basis set group =>   1
Atom  18C    basis set group =>   1
Atom  19C    basis set group =>   1
Atom  20C    basis set group =>   1
Atom  21C    basis set group =>   1
Atom  22C    basis set group =>   1
Atom  23C    basis set group =>   1
Atom  24C    basis set group =>   1
Atom  25C    basis set group =>   1
Atom  26C    basis set group =>   1
Atom  27C    basis set group =>   1
Atom  28C    basis set group =>   1
Atom  29C    basis set group =>   1
Atom  30C    basis set group =>   1
Atom  31C    basis set group =>   1
Atom  32H    basis set group =>   2
Atom  33H    basis set group =>   2
Atom  34H    basis set group =>   2
Atom  35H    basis set group =>   2
Atom  36H    basis set group =>   2
Atom  37H    basis set group =>   2
Atom  38H    basis set group =>   2
Atom  39H    basis set group =>   2
Atom  40H    basis set group =>   2
Atom  41H    basis set group =>   2
Atom  42H    basis set group =>   2
Atom  43H    basis set group =>   2
Atom  44H    basis set group =>   2
Atom  45H    basis set group =>   2
Atom  46H    basis set group =>   2
Atom  47H    basis set group =>   2
Atom  48H    basis set group =>   2
Atom  49H    basis set group =>   2
----------------------------------
AUXILIARY/JK BASIS SET INFORMATION
----------------------------------
There are 2 groups of distinct atoms

 Group   1 Type C   : 9s8p7d5f3g1h contracted to 9s8p7d5f3g1h pattern {111111111/11111111/1111111/11111/111/1}
 Group   2 Type H   : 6s4p3d2f1g contracted to 6s4p3d2f1g pattern {111111/1111/111/11/1}

Atom   0C    basis set group =>   1
Atom   1C    basis set group =>   1
Atom   2C    basis set group =>   1
Atom   3C    basis set group =>   1
Atom   4C    basis set group =>   1
Atom   5C    basis set group =>   1
Atom   6C    basis set group =>   1
Atom   7C    basis set group =>   1
Atom   8C    basis set group =>   1
Atom   9C    basis set group =>   1
Atom  10C    basis set group =>   1
Atom  11C    basis set group =>   1
Atom  12C    basis set group =>   1
Atom  13C    basis set group =>   1
Atom  14C    basis set group =>   1
Atom  15C    basis set group =>   1
Atom  16C    basis set group =>   1
Atom  17C    basis set group =>   1
Atom  18C    basis set group =>   1
Atom  19C    basis set group =>   1
Atom  20C    basis set group =>   1
Atom  21C    basis set group =>   1
Atom  22C    basis set group =>   1
Atom  23C    basis set group =>   1
Atom  24C    basis set group =>   1
Atom  25C    basis set group =>   1
Atom  26C    basis set group =>   1
Atom  27C    basis set group =>   1
Atom  28C    basis set group =>   1
Atom  29C    basis set group =>   1
Atom  30C    basis set group =>   1
Atom  31C    basis set group =>   1
Atom  32H    basis set group =>   2
Atom  33H    basis set group =>   2
Atom  34H    basis set group =>   2
Atom  35H    basis set group =>   2
Atom  36H    basis set group =>   2
Atom  37H    basis set group =>   2
Atom  38H    basis set group =>   2
Atom  39H    basis set group =>   2
Atom  40H    basis set group =>   2
Atom  41H    basis set group =>   2
Atom  42H    basis set group =>   2
Atom  43H    basis set group =>   2
Atom  44H    basis set group =>   2
Atom  45H    basis set group =>   2
Atom  46H    basis set group =>   2
Atom  47H    basis set group =>   2
Atom  48H    basis set group =>   2
Atom  49H    basis set group =>   2


           ************************************************************
           *        Program running with 104 parallel MPI-processes   *
           *              working on a common directory               *
           ************************************************************
------------------------------------------------------------------------------
                             ORCA STARTUP CALCULATIONS
                           -- RI-GTO INTEGRALS CHOSEN --
------------------------------------------------------------------------------
------------------------------------------------------------------------------
                   ___                                                        
                  /   \      - P O W E R E D   B Y -                         
                 /     \                                                     
                 |  |  |   _    _      __       _____    __    __             
                 |  |  |  | |  | |    /  \     |  _  \  |  |  /  |          
                  \  \/   | |  | |   /    \    | | | |  |  | /  /          
                 / \  \   | |__| |  /  /\  \   | |_| |  |  |/  /          
                |  |  |   |  __  | /  /__\  \  |    /   |      \           
                |  |  |   | |  | | |   __   |  |    \   |  |\   \          
                \     /   | |  | | |  |  |  |  | |\  \  |  | \   \       
                 \___/    |_|  |_| |__|  |__|  |_| \__\ |__|  \__/        
                                                                              
                      - O R C A' S   B I G   F R I E N D -                    
                                      &                                       
                       - I N T E G R A L  F E E D E R -                       
                                                                              
 v1 FN, 2020, v2 2021, v3 2022-2024                                           
------------------------------------------------------------------------------


----------------------
SHARK INTEGRAL PACKAGE
----------------------

Number of atoms                             ...     50
Number of basis functions                   ...   2364
Number of shells                            ...    724
Maximum angular momentum                    ...      4
Integral batch strategy                     ... SHARK/LIBINT Hybrid
RI-J (if used) integral strategy            ... SPLIT-RIJ (Revised 2003 algorithm where possible)
Printlevel                                  ...      1
Contraction scheme used                     ... SEGMENTED contraction
Prescreening option                         ... SCHWARTZ
   Thresh                                   ... 1.000e-10
   Tcut                                     ... 1.000e-11
   Tpresel                                  ... 1.000e-11 
Coulomb Range Separation                    ... NOT USED
Exchange Range Separation                   ... NOT USED
Multipole approximations                    ... NOT USED
Finite Nucleus Model                        ... NOT USED
CABS basis                                  ... NOT available
Auxiliary Coulomb fitting basis             ... NOT available
Auxiliary J/K fitting basis                 ... AVAILABLE
   # of basis functions in Aux-JK           ...   5520
   # of shells in Aux-JK                    ...   1344
   Maximum angular momentum in Aux-JK       ...      5
Auxiliary Correlation fitting basis         ... AVAILABLE
   # of basis functions in Aux-C            ...   5520
   # of shells in Aux-C                     ...   1344
   Maximum angular momentum in Aux-C        ...      5
Auxiliary 'external' fitting basis          ... NOT available

Checking pre-screening integrals            ... done (  0.0 sec) Dimension = 724
Check shell pair data                       ... done (  0.0 sec)
Shell pair information
Shell pair cut-off parameter TPreSel        ...   1.0e-11
Total number of shell pairs                 ...    262450
Shell pairs after pre-screening             ...    142124
Total number of primitive shell pairs       ...    677059
Primitive shell pairs kept                  ...    247048
          la=0 lb=0:  21614 shell pairs
          la=1 lb=0:  32471 shell pairs
          la=1 lb=1:  11481 shell pairs
          la=2 lb=0:  19247 shell pairs
          la=2 lb=1:  14645 shell pairs
          la=2 lb=2:   4554 shell pairs
          la=3 lb=0:  11352 shell pairs
          la=3 lb=1:   8681 shell pairs
          la=3 lb=2:   5106 shell pairs
          la=3 lb=3:   1528 shell pairs
          la=4 lb=0:   4501 shell pairs
          la=4 lb=1:   3453 shell pairs
          la=4 lb=2:   2059 shell pairs
          la=4 lb=3:   1177 shell pairs
          la=4 lb=4:    255 shell pairs

Calculating one electron integrals          ... done (  1.1 sec)
Calculating RI/JK V-Matrix + Cholesky decomp... done (  2.0 sec)
Calculating RI/C V-Matrix + Cholesky decomp.... done (  1.6 sec)
Calculating Nuclear repulsion               ... done (  0.0 sec) ENN=   2888.590820800520 Eh

Diagonalization of the overlap matrix:
Smallest eigenvalue                        ... 2.183e-07
Time for diagonalization                   ...    0.894 sec
Threshold for overlap eigenvalues          ... 1.000e-07
Number of eigenvalues below threshold      ... 0

IMPORTANT:
Smallest eigenvalue of S below the DiffSThresh (1.000e-06) while
Thresh>1e-12 and/or TCut>1e-13! In order to avoid SCF convergence issues,
Thresh will be set to at least 1e-12 and TCut to at least 1e-13.
This can be turned off by adding %SCF DiffSThresh -1 END to the input.

Time for construction of square roots      ...    0.592 sec
Total time needed                          ...    1.552 sec

-------------------
DFT GRID GENERATION
-------------------

General Integration Accuracy     IntAcc      ... 4.959
Radial Grid Type                 RadialGrid  ... OptM3 with GC (2021)
Angular Grid (max. ang.)         AngularGrid ... 6 (Lebedev-590)
Angular grid pruning method      GridPruning ... 4 (adaptive)
Weight generation scheme         WeightScheme... mBecke (2022)
Basis function cutoff            BFCut       ... 1.0000e-10
Integration weight cutoff        WCut        ... 1.0000e-14
Partially contracted basis set               ... off
Rotationally invariant grid construction     ... off
Angular grids for H and He will be reduced by one unit
Diffuse basis detected: some atoms will have their outermost
                        angular grid increased by 1.

Total number of grid points                  ...   615174
Total number of batches                      ...     9632
Average number of points per batch           ...       63
Average number of grid points per atom       ...    12303
Initializing property integral containers    ... done (  0.1 sec)

SHARK setup successfully completed in  15.7 seconds

Maximum memory used throughout the entire STARTUP-calculation: 280.6 MB


           ************************************************************
           *        Program running with 104 parallel MPI-processes   *
           *              working on a common directory               *
           ************************************************************
-------------------------------------------------------------------------------
                                 ORCA GUESS
                   Start orbitals & Density for SCF / CASSCF
-------------------------------------------------------------------------------

------------
SCF SETTINGS
------------
Hamiltonian:
 Density Functional     Method          .... DFT(GTOs)
 Exchange Functional    Exchange        .... PBE
   PBE kappa parameter   XKappa         ....  0.804000
   PBE mue parameter    XMuePBE         ....  0.219520
 Correlation Functional Correlation     .... P86
 LDA part of GGA corr.  LDAOpt          .... VWN-5
 Gradients option       PostSCFGGA      .... off
 Hybrid DFT is turned on
   Fraction HF Exchange ScalHFX         ....  0.690000
   Scaling of DF-GGA-X  ScalDFX         ....  0.310000
   Scaling of DF-GGA-C  ScalDFC         ....  0.403800
   Scaling of DF-LDA-C  ScalLDAC        ....  0.403800
   Perturbative correction              ....  1.000000
 RI-approximation to the Coulomb term is turned on
   Number of AuxJK basis functions      .... 5520
   RI-JK (J+K treated both via RI)      .... on


General Settings:
 Integral files         IntName         .... compas3x_hc_c32h18_0pent_1_qz_riri
 Hartree-Fock type      HFTyp           .... RHF
 Total Charge           Charge          ....    0
 Multiplicity           Mult            ....    1
 Number of Electrons    NEL             ....  210
 Basis Dimension        Dim             .... 2364
 Nuclear Repulsion      ENuc            ....   2888.5908208005 Eh

Convergence Acceleration:
 AO-DIIS                CNVDIIS         .... on
   Start iteration      DIISMaxIt       ....    12
   Startup error        DIISStart       ....  0.200000
   # of expansion vecs  DIISMaxEq       ....     5
   Bias factor          DIISBfac        ....   1.050
   Max. coefficient     DIISMaxC        ....  10.000
 MO-DIIS                CNVKDIIS        .... off
 Trust-Rad. Augm. Hess. CNVTRAH         .... auto
   Auto Start mean grad. ratio tolernc. ....  1.125000
   Auto Start start iteration           ....    50
   Auto Start num. interpolation iter.  ....    10
   Max. Number of Micro iterations      ....    24
   Max. Number of Macro iterations      .... Maxiter - #DIIS iter
   Number of Davidson start vectors     ....     2
   Converg. threshold    (grad. norm)   ....   5.000e-05
   Grad. Scal. Fac. for Micro threshold ....   0.100
   Minimum threshold for Micro iter.    ....   1.000e-02
   NR start threshold (gradient norm)   ....   1.000e-04
   Initial trust radius                 ....   0.400
   Minimum AH scaling param. (alpha)    ....   1.000
   Maximum AH scaling param. (alpha)    .... 1000.000
   Quad. conv. algorithm                .... NR
   White noise on init. David. guess    .... on
   Maximum white noise                  ....   0.010
   Pseudo random numbers                .... off
   Inactive MOs                         .... canonical
   Orbital update algorithm             .... Taylor
   Preconditioner                       .... Diag
   Full preconditioner red. dimension   ....   250
 SOSCF                  CNVSOSCF        .... on
   Start iteration      SOSCFMaxIt      ....   150
   Startup grad/error   SOSCFStart      ....  0.003300
   Hessian update       SOSCFHessUp     .... L-BFGS
 Level Shifting         CNVShift        .... on
   Level shift para.    LevelShift      ....    0.2500
   Turn off err/grad.   ShiftErr        ....    0.0010
 Zerner damping         CNVZerner       .... off
 Static damping         CNVDamp         .... on
   Fraction old density DampFac         ....    0.7000
   Max. Damping (<1)    DampMax         ....    0.9800
   Min. Damping (>=0)   DampMin         ....    0.0000
   Turn off err/grad.   DampErr         ....    0.1000

SCF Procedure:
 Maximum # iterations   MaxIter         ....   125
 SCF integral mode      SCFMode         .... Direct
   Integral package                     .... SHARK and LIBINT hybrid scheme
 Reset frequency        DirectResetFreq ....    20
 Integral Threshold     Thresh          ....  1.000e-12 Eh
 Primitive CutOff       TCut            ....  1.000e-13 Eh

Convergence Tolerance:
 Convergence Check Mode ConvCheckMode   .... Total+1el-Energy
 Convergence forced     ConvForced      .... 0
 Energy Change          TolE            ....  1.000e-06 Eh
 1-El. energy change                    ....  1.000e-03 Eh
 Orbital Gradient       TolG            ....  5.000e-05
 Orbital Rotation angle TolX            ....  5.000e-05
 DIIS Error             TolErr          ....  1.000e-06

------------------------------
INITIAL GUESS: MODEL POTENTIAL
------------------------------
Loading Hartree-Fock densities                     ... done
Calculating cut-offs                               ... done
Initializing the effective Hamiltonian             ... done
Setting up the integral package (SHARK)            ... done
Starting the Coulomb interaction                   ... done (   0.7 sec)
Making the grid                                    ... done (   0.5 sec)
Mapping shells                                     ... done
Starting the XC term evaluation                    ... done (   0.2 sec)
  promolecular density results
     # of electrons  =    209.998728582
     EX              =   -169.221280460
     EC              =      0.252606818
     EX+EC           =   -168.968673642
Transforming the Hamiltonian                       ... done (   0.5 sec)
Diagonalizing the Hamiltonian                      ... done (   0.6 sec)
Back transforming the eigenvectors                 ... done (   0.3 sec)
Now organizing SCF variables                       ... done
                      ------------------
                      INITIAL GUESS DONE (   3.6 sec)
                      ------------------
             **** ENERGY FILE WAS UPDATED (compas3x_hc_c32h18_0pent_1_qz_riri.en.tmp) ****
Finished Guess after  21.2 sec
Maximum memory used throughout the entire GUESS-calculation: 319.2 MB


           ************************************************************
           *        Program running with 104 parallel MPI-processes   *
           *              working on a common directory               *
           ************************************************************

-------------------------------------------------------------------------------------------
                                      ORCA LEAN-SCF
                              memory conserving SCF solver
-------------------------------------------------------------------------------------------

----------------------------------------D-I-I-S--------------------------------------------
Iteration    Energy (Eh)           Delta-E    RMSDP     MaxDP     DIISErr   Damp  Time(sec)
-------------------------------------------------------------------------------------------
    1    -1225.0001316532434430     0.00e+00  8.12e-04  2.84e-01  1.48e-01  0.700  33.7
    2    -1224.7717186083846173     2.28e-01  1.14e-03  4.25e-01  1.31e-01  0.700  35.2
                               ***Turning on AO-DIIS***
    3    -1224.9156493602322371    -1.44e-01  3.20e-04  6.62e-02  7.69e-02  0.700  31.6
    4    -1225.1993279048983823    -2.84e-01  1.15e-03  3.97e-01  4.09e-02  0.000  33.3
    5    -1225.6522638264586931    -4.53e-01  3.66e-04  1.27e-01  3.25e-02  0.000  34.6
    6    -1225.6708103070614015    -1.85e-02  1.55e-04  5.67e-02  1.55e-02  0.000  32.4
    7    -1225.6755292349462252    -4.72e-03  6.91e-05  2.36e-02  5.23e-03  0.000  33.5
                              *** Initializing SOSCF ***
---------------------------------------S-O-S-C-F--------------------------------------
Iteration    Energy (Eh)           Delta-E    RMSDP     MaxDP     MaxGrad    Time(sec)
--------------------------------------------------------------------------------------
    8    -1225.6761185926925464    -5.89e-04  7.54e-05  2.79e-02  1.34e-03    37.1
    9    -1225.6761687637263094    -5.02e-05  3.03e-05  8.14e-03  1.32e-04    32.4
   10    -1225.6761735976233467    -4.83e-06  3.48e-05  1.24e-02  1.04e-04    30.7
   11    -1225.6761744033210562    -8.06e-07  7.94e-06  2.45e-03  4.34e-05    31.1
                 **** Energy Check signals convergence ****

               *****************************************************
               *                     SUCCESS                       *
               *           SCF CONVERGED AFTER  11 CYCLES          *
               *****************************************************

             **** ENERGY FILE WAS UPDATED (compas3x_hc_c32h18_0pent_1_qz_riri.en.tmp) ****

----------------
TOTAL SCF ENERGY
----------------

Total Energy       :      -1225.67617440332106 Eh          -33352.34431 eV

Components:
Nuclear Repulsion  :       2888.59082080052031 Eh           78602.55231 eV
Electronic Energy  :      -4114.26699520384136 Eh         -111954.89662 eV
One Electron Energy:      -7404.18512839070081 Eh         -201478.12029 eV
Two Electron Energy:       3289.91813318685945 Eh           89523.22368 eV

Virial components:
Potential Energy   :      -2448.73502138622280 Eh          -66633.46751 eV
Kinetic Energy     :       1223.05884698290197 Eh           33281.12321 eV
Virial Ratio       :          2.00213998486408

DFT components:
N(Alpha)           :      105.000010682366 electrons
N(Beta)            :      105.000010682366 electrons
N(Total)           :      210.000021364733 electrons
E(X)               :      -53.353271746766 Eh       
E(C)               :       -3.137201573881 Eh       
E(XC)              :      -56.490473320647 Eh       

---------------
SCF CONVERGENCE
---------------

  Last Energy change         ...    8.0570e-07  Tolerance :   1.0000e-06
  Last MAX-Density change    ...    2.4528e-03  Tolerance :   1.0000e-05
  Last RMS-Density change    ...    7.9440e-06  Tolerance :   1.0000e-06
  Last DIIS Error            ...    1.3392e-03  Tolerance :   1.0000e-06
  Last Orbital Gradient      ...    4.3412e-05  Tolerance :   5.0000e-05
  Last Orbital Rotation      ...    9.8914e-05  Tolerance :   5.0000e-05


----------------
ORBITAL ENERGIES
----------------

  NO   OCC          E(Eh)            E(eV) 
   0   2.0000     -10.837690      -294.9085 
   1   2.0000     -10.836952      -294.8884 
   2   2.0000     -10.836393      -294.8733 
   3   2.0000     -10.836085      -294.8649 
   4   2.0000     -10.835901      -294.8599 
   5   2.0000     -10.835541      -294.8501 
   6   2.0000     -10.835411      -294.8465 
   7   2.0000     -10.834987      -294.8350 
   8   2.0000     -10.834294      -294.8161 
   9   2.0000     -10.834096      -294.8107 
  10   2.0000     -10.832187      -294.7588 
  11   2.0000     -10.831635      -294.7438 
  12   2.0000     -10.829822      -294.6944 
  13   2.0000     -10.829352      -294.6816 
  14   2.0000     -10.823372      -294.5189 
  15   2.0000     -10.822769      -294.5025 
  16   2.0000     -10.822353      -294.4912 
  17   2.0000     -10.822159      -294.4859 
  18   2.0000     -10.822124      -294.4850 
  19   2.0000     -10.821856      -294.4777 
  20   2.0000     -10.821767      -294.4753 
  21   2.0000     -10.821243      -294.4610 
  22   2.0000     -10.821097      -294.4570 
  23   2.0000     -10.820696      -294.4461 
  24   2.0000     -10.820653      -294.4449 
  25   2.0000     -10.820446      -294.4393 
  26   2.0000     -10.819489      -294.4133 
  27   2.0000     -10.819414      -294.4112 
  28   2.0000     -10.818175      -294.3775 
  29   2.0000     -10.818149      -294.3768 
  30   2.0000     -10.817047      -294.3468 
  31   2.0000     -10.817039      -294.3466 
  32   2.0000      -1.104219       -30.0473 
  33   2.0000      -1.074982       -29.2517 
  34   2.0000      -1.064797       -28.9746 
  35   2.0000      -1.050102       -28.5747 
  36   2.0000      -1.021286       -27.7906 
  37   2.0000      -1.012541       -27.5526 
  38   2.0000      -0.983823       -26.7712 
  39   2.0000      -0.967512       -26.3273 
  40   2.0000      -0.956013       -26.0144 
  41   2.0000      -0.938947       -25.5500 
  42   2.0000      -0.933414       -25.3995 
  43   2.0000      -0.916874       -24.9494 
  44   2.0000      -0.895456       -24.3666 
  45   2.0000      -0.893566       -24.3152 
  46   2.0000      -0.888985       -24.1905 
  47   2.0000      -0.866997       -23.5922 
  48   2.0000      -0.799970       -21.7683 
  49   2.0000      -0.788724       -21.4623 
  50   2.0000      -0.787091       -21.4178 
  51   2.0000      -0.774769       -21.0825 
  52   2.0000      -0.758352       -20.6358 
  53   2.0000      -0.750902       -20.4331 
  54   2.0000      -0.738913       -20.1068 
  55   2.0000      -0.715319       -19.4648 
  56   2.0000      -0.705047       -19.1853 
  57   2.0000      -0.699537       -19.0354 
  58   2.0000      -0.663467       -18.0539 
  59   2.0000      -0.647417       -17.6171 
  60   2.0000      -0.640633       -17.4325 
  61   2.0000      -0.636218       -17.3124 
  62   2.0000      -0.619940       -16.8694 
  63   2.0000      -0.612515       -16.6674 
  64   2.0000      -0.600446       -16.3390 
  65   2.0000      -0.594601       -16.1799 
  66   2.0000      -0.582242       -15.8436 
  67   2.0000      -0.570339       -15.5197 
  68   2.0000      -0.562469       -15.3055 
  69   2.0000      -0.556977       -15.1561 
  70   2.0000      -0.549150       -14.9431 
  71   2.0000      -0.543953       -14.8017 
  72   2.0000      -0.538495       -14.6532 
  73   2.0000      -0.535885       -14.5822 
  74   2.0000      -0.530113       -14.4251 
  75   2.0000      -0.525351       -14.2955 
  76   2.0000      -0.521931       -14.2025 
  77   2.0000      -0.518413       -14.1067 
  78   2.0000      -0.512646       -13.9498 
  79   2.0000      -0.508396       -13.8342 
  80   2.0000      -0.491673       -13.3791 
  81   2.0000      -0.488776       -13.3003 
  82   2.0000      -0.481611       -13.1053 
  83   2.0000      -0.476668       -12.9708 
  84   2.0000      -0.468504       -12.7487 
  85   2.0000      -0.463602       -12.6153 
  86   2.0000      -0.461308       -12.5528 
  87   2.0000      -0.450496       -12.2586 
  88   2.0000      -0.441685       -12.0189 
  89   2.0000      -0.438392       -11.9293 
  90   2.0000      -0.432110       -11.7583 
  91   2.0000      -0.424573       -11.5532 
  92   2.0000      -0.417448       -11.3593 
  93   2.0000      -0.409261       -11.1366 
  94   2.0000      -0.402889       -10.9632 
  95   2.0000      -0.374000       -10.1770 
  96   2.0000      -0.362661        -9.8685 
  97   2.0000      -0.342683        -9.3249 
  98   2.0000      -0.341363        -9.2890 
  99   2.0000      -0.324264        -8.8237 
 100   2.0000      -0.303011        -8.2453 
 101   2.0000      -0.279730        -7.6118 
 102   2.0000      -0.271996        -7.4014 
 103   2.0000      -0.257741        -7.0135 
 104   2.0000      -0.234281        -6.3751 
 105   0.0000      -0.004220        -0.1148 
 106   0.0000       0.011521         0.3135 
 107   0.0000       0.026493         0.7209 
 108   0.0000       0.029680         0.8076 
 109   0.0000       0.059765         1.6263 
 110   0.0000       0.070818         1.9271 
 111   0.0000       0.074333         2.0227 
 112   0.0000       0.076678         2.0865 
 113   0.0000       0.078166         2.1270 
 114   0.0000       0.085561         2.3282 
 115   0.0000       0.087858         2.3907 
*Only the first 10 virtual orbitals were printed.
-------
TIMINGS
-------

Total SCF time: 0 days 0 hours 6 min 24 sec 

Total time                  ....     384.885 sec
Sum of individual times     ....     384.788 sec  (100.0%)

SCF preparation             ....      16.698 sec  (  4.3%)
Fock matrix formation       ....     328.600 sec  ( 85.4%)
  Startup                   ....       3.100 sec  (  0.9% of F)
  RI-JK                     ....     299.192 sec  ( 91.1% of F)
  XC integration            ....      18.507 sec  (  5.6% of F)
    XC Preparation          ....       0.000 sec  (  0.0% of XC)
    Basis function eval.    ....       1.267 sec  (  6.8% of XC)
    Density eval.           ....       3.797 sec  ( 20.5% of XC)
    XC-Functional eval.     ....       0.034 sec  (  0.2% of XC)
    XC-Potential eval.      ....       4.949 sec  ( 26.7% of XC)
Diagonalization             ....       0.000 sec  (  0.0%)
Density matrix formation    ....       5.322 sec  (  1.4%)
Total Energy calculation    ....       2.622 sec  (  0.7%)
Population analysis         ....       0.000 sec  (  0.0%)
Orbital Transformation      ....       3.752 sec  (  1.0%)
Orbital Orthonormalization  ....       0.000 sec  (  0.0%)
DIIS solution               ....      22.280 sec  (  5.8%)
SOSCF solution              ....       5.319 sec  (  1.4%)
Finished LeanSCF after 385.7 sec

Maximum memory used throughout the entire LEANSCF-calculation: 1026.7 MB


           ************************************************************
           *        Program running with 104 parallel MPI-processes   *
           *              working on a common directory               *
           ************************************************************

------------------------------------------------------------------------------
                                ORCA  MP2 
------------------------------------------------------------------------------


-------------
RI-MP2 ENERGY
-------------
Dimension of the orbital basis            ... 2364
Dimension of the AuxC basis               ... 5520
Memory devoted to MP2                     ... 4096 MB   
Data format for matrix containers         ... DOUBLE
Compression type for matrix containers    ... UNCOMPRESSED
Scaling for aa/bb pairs                   ...   5.710e-02
Scaling for ab pairs                      ...   5.979e-01
Overall scaling of the MP2 energy         ...   1.000e+00

-----------------------
SHARK RI TRANSFORMATION
-----------------------

Number of basis functions                ...   2364
Number of aux functions                  ...   5520
Number of operators                      ...      1
Generation of IJK                        ... NO
Generation of IAK                        ... YES
Generation of ABK                        ... NO
Orbital Range Operator  0:    0- 104 to  105-2363

Aux basis identifier                     ...   AUXC
Contraction scheme used                  ... SEGMENTED
Do orthogonalization                     ... YES
All operator combinations                ... NO
Transpose (ia|K)                         ... NO
Integral generator used                  ... LIBINT
Starting integral generation + trafo... 
Half trafo (segmented) done. Total time = 11.5 sec. integrals=  2.5 sec trafo=  8.4 sec
Integral generation and half transformation done ( 11.5 sec)

Reading or making V^(-1/2)          ... done (  0.6 sec)
Sorting IAK integrals               ... done ( 13.0 sec)

SHARK RI integral transformation done. Total time = 25.2 sec.

Opening buffers                              ... done

Starting loop over batches of integrals:

Operator 0  - window                       ... (  0-104)x(105-2363)
Operator 0  - Memory available             ...  4096 MB
Operator 0  - Memory needed per MO         ...  95.1 MB
Operator 0  - Number of orbitals per batch ... 2
Operator 0  - Number of batches            ... 1

OPERATOR  0   PASS   0:  MOs     0 ...    1 +    2 ...    3 +    4 ...    5 +    6 ...    7
                            +    8 ...    9 +   10 ...   11 +   12 ...   13 +   14 ...   15
                            +   16 ...   17 +   18 ...   19 +   20 ...   21 +   22 ...   23
                            +   24 ...   25 +   26 ...   27 +   28 ...   29 +   30 ...   31
                            +   32 ...   33 +   34 ...   35 +   36 ...   37 +   38 ...   39
                            +   40 ...   41 +   42 ...   43 +   44 ...   45 +   46 ...   47
                            +   48 ...   49 +   50 ...   51 +   52 ...   53 +   54 ...   55
                            +   56 ...   57 +   58 ...   59 +   60 ...   61 +   62 ...   63
                            +   64 ...   65 +   66 ...   67 +   68 ...   69 +   70 ...   71
                            +   72 ...   73 +   74 ...   75 +   76 ...   77 +   78 ...   79
                            +   80 ...   81 +   82 ...   83 +   84 ...   85 +   86 ...   87
                            +   88 ...   89 +   90 ...   91 +   92 ...   93 +   94 ...   95
                            +   96 ...   97 +   98 ...   99 +  100 ...  101 +  102 ...  103
                            +  104 ...  104
  Reading integrals       ... ok
Time spent in pair loops =   231.828 sec

-----------------------------------------------
 RI-MP2 CORRELATION ENERGY:     -3.156302752 Eh
-----------------------------------------------


-------
TIMINGS
-------

Total time                :  262.320 sec
Integral trafo            :   25.501 sec (  9.7%)
I/O of integrals          :    0.226 sec (  0.1%)
K(i,j) operators          :    3.077 sec (  1.2%)
T(i,j) pair energies      :    0.364 sec (  0.1%)
V**(-1/2)                 :    4.989 sec (  1.9%)


---------------------------------------
MP2 TOTAL ENERGY:    -1228.832477156 Eh
---------------------------------------

Maximum memory used throughout the entire MP2-calculation: 770.7 MB


-------------------------------------------------------------------------------
                          DFT DISPERSION CORRECTION                            
                                                                               
                                DFTD4 V3.4.0                                   
-------------------------------------------------------------------------------
The REV-DSD-PBEP86-2021 functional is recognized
A user input s6-coefficient scaling factor has been recognized
A user input a1-coefficient scaling factor has been recognized
A user input s8-coefficient scaling factor has been recognized
A user input a2-coefficient scaling factor has been recognized
A user input s9-coefficient scaling factor has been recognized
Active option DFTDOPT                   ...         5   

-------------------------   ----------------
Dispersion correction           -0.053844169
-------------------------   ----------------


-------------------------   --------------------
FINAL SINGLE POINT ENERGY     -1228.886321324920
-------------------------   --------------------



           ************************************************************
           *        Program running with 104 parallel MPI-processes   *
           *              working on a common directory               *
           ************************************************************

------------------------------------------------------------------------------
                              ORCA PROPERTY CALCULATIONS
------------------------------------------------------------------------------

GBWName                                 ... compas3x_hc_c32h18_0pent_1_qz_riri.gbw
Number of atoms                         ...     50
Number of basis functions               ...   2364
Max core memory                         ...   1024 MB

Electric properties:
Dipole moment                           ... YES
Quadrupole moment                       ...  NO
Static polarizability (Dipole/Dipole)   ...  NO
Static polarizability (Dipole/Quad.)    ...  NO
Static polarizability (Quad./Quad.)     ...  NO
Static polarizability (Velocity)        ...  NO

Atomic electric properties:
Dipole moment                           ...  NO
Quadrupole moment                       ...  NO
Static polarizability                   ...  NO

Choice of electric origin               ... Center of mass
Position of electric origin             ...     0.104795    -0.066252    -0.051518

General magnetic properties:
Magnetizability                         ...  NO

EPR properties:
g-Tensor (aka g-matrix)                 ...  NO
Zero-Field splitting spin-orbit         ...  NO
Zero-field splitting spin-spin          ...  NO
Hyperfine couplings                     ...  NO (   0 nuclei)
Quadrupole couplings                    ...  NO (   0 nuclei)
Contact density                         ...  NO (   0 nuclei)

NMR properties:
Chemical shifts                         ...  NO (   0 nuclei)
Spin-rotation constants                 ...  NO (   0 nuclei)
Spin-spin couplings                     ...  NO (   0 nuclei,    0 pairs)

Choice of magnetic origin               ... GIAO
Position of magnetic origin             ...     0.000000     0.000000     0.000000

Properties with geometric perturbations:
SCF Hessian                             ...  NO
IR spectrum                             ...  NO
VCD spectrum                            ...  NO
X-ray spectroscopy properties:
SCF XES/XAS/RIXS spectra                ...  NO


-------------
DIPOLE MOMENT
-------------

Method             : SCF
Type of density    : Electron Density
Multiplicity       :   1
Irrep              :   0
Energy             : -1225.6761744033210562 Eh
Relativity type    : 
Basis              : AO
                                X                 Y                 Z
Electronic contribution:      2.856665095      -1.815085914      -1.376339959
Nuclear contribution   :     -2.840660445       1.798321851       1.393941319
                        -----------------------------------------
Total Dipole Moment    :      0.016004651      -0.016764062       0.017601361
                        -----------------------------------------
Magnitude (a.u.)       :      0.029103102
Magnitude (Debye)      :      0.073974205



--------------------
Rotational spectrum 
--------------------
 
Rotational constants in cm-1:             0.007623             0.004096             0.002922 
Rotational constants in MHz :           228.530057           122.809422            87.590407 

Dipole components along the rotational axes: 
x,y,z [a.u.] :    -0.013757     0.015212     0.020648 
x,y,z [Debye]:    -0.034968     0.038665     0.052483 

 

Dipole moment calculation done in   0.5 sec 

Maximum memory used throughout the entire PROP-calculation: 357.3 MB

--------------------------------
SUGGESTED CITATIONS FOR THIS RUN
--------------------------------

Below you find a list of papers that are relevant to this ORCA run
We neither can nor want to force you to cite these papers, but we appreciate if you do
You receive ORCA, which is the product of decades of hard work by many enthusiastic individuals, for free
The only thing we kindly ask in return is that you cite our papers,
We deeply appreciate it, if you show your appreciation for ORCA by not just citing the generic ORCA reference.

Please note that relegating all ORCA citations to the supporting information does *not* help us.
SI sections are not indexed - citations you put there will not count into any citation statistics
But we need these citations in order to attract the funding resources that allow us to do what we are doing

Therefore, if you are a happy ORCA user, please consider citing a few of the papers listed below in the main body of your paper

In addition to the list printed below, the program has created the file compas3x_hc_c32h18_0pent_1_qz_riri.bibtex that contains the list in bibtex format
You can import this file easily into all common literature databanks and citation aid programs


List of essential papers. We consider these as the minimum necessary citations

  1. Neese,F.
     Software update: the ORCA program system, version 5.0
     WIRES Comput. Molec. Sci., 2022 12(1)e1606
     doi.org/10.1002/wcms.1606

List of papers to cite with high priority. The work reported in these papers was absolutely
necessary for this run to complete.
Our perspective: the developers of density functionals and basis sets usually get cited in chemistry papers
Good! But without the algorithms to do something with them, the functionals or basis sets would not do anything.
Hence, in our opinion, the algorithm design and method developments papers are equally worthy of getting cited

  1. Neese,F.
     An improvement of the resolution of the identity approximation for the formation of the Coulomb matrix
     J. Comp. Chem., 2003 24(14)1740-1747
     doi.org/10.1002/jcc.10318
  2. Kossmann,S.; Neese,F.
     Comparison of two efficient approximate Hartee-Fock approaches
     Chem. Phys. Lett., 2009 481 240-243
     doi.org/10.1016/j.cplett.2009.09.073
  3. Neese,F.
     The SHARK Integral Generation and Digestion System
     J. Comp. Chem., 2022  1-16
     doi.org/10.1002/jcc.26942
  4. Caldeweyher,E.; Bannwarth,C.; Grimme,S.
     Extension of the D3 dispersion coefficient model
     J. Chem. Phys., 2017 147 034112
     doi.org/10.1063/1.4993215
  5. Caldeweyher,E.; Ehlert,S.; Hansen,A.; Neugebauer,H.; Spicher,S.; Bannwarth,C.; Grimme,S.
     A generally applicable atomic-charge dependent London dispersion correction
     J. Chem. Phys., 2019 150 154122
     doi.org/10.1063/1.5090222
  6. Caldeweyher,E.; Mewes,J.; Ehlert,S.; Grimme,S.
     Extension and evaluation of the D4 London-dispersion model for periodic systems
     Phys. Chem. Chem. Phys., 2020 22(16)8499-8512
     doi.org/10.1039/D0CP00502A
  7. Wittmann,L.; Gordiy,I.; Friede,M.; Helmich-Paris,B.; Grimme,S.; Hansen,A.; Bursch,M.
     Extension of the D3 and D4 London Dispersion Corrections to the full Actinides Series
     Phys. Chem. Chem. Phys., 2024 26(32)21379-21394
     doi.org/https://doi.org/10.1039/D4CP01514B 

List of suggested additional citations. These are papers that are important in the 'surrounding' of 
of this run, or papers that preceded the highly important papers. If you like your results we are grateful for a citation.

  1. Neese,F.
     The ORCA program system
     WIRES Comput. Molec. Sci., 2012 2(1)73-78
     doi.org/10.1002/wcms.81
  2. Neese,F.
     Software update: the ORCA program system, version 4.0
     WIRES Comput. Molec. Sci., 2018 8(1)1-6
     doi.org/10.1002/wcms.1327
  3. Neese,F.; Wennmohs,F.; Becker,U.; Riplinger,C.
     The ORCA quantum chemistry program package
     J. Chem. Phys., 2020 152 Art. No. L224108
     doi.org/10.1063/5.0004608

List of optional additional citations

  1. Neese,F.
     Approximate second-order SCF convergence for spin unrestricted wavefunctions
     Chem. Phys. Lett., 2000 325(1-3)93-98
     doi.org/10.1016/s0009-2614(00)00662-x

Timings for individual modules:

Sum of individual times          ...      740.877 sec (=  12.348 min)
Startup calculation              ...       31.857 sec (=   0.531 min)   4.3 %
SCF iterations                   ...      409.622 sec (=   6.827 min)  55.3 %
Property calculations            ...       17.862 sec (=   0.298 min)   2.4 %
MP2 module                       ...      281.536 sec (=   4.692 min)  38.0 %
                             ****ORCA TERMINATED NORMALLY****
TOTAL RUN TIME: 0 days 0 hours 12 minutes 50 seconds 478 msec
