
                                 *****************
                                 * O   R   C   A *
                                 *****************

                                            #,                                       
                                            ###                                      
                                            ####                                     
                                            #####                                    
                                            ######                                   
                                           ########,                                 
                                     ,,################,,,,,                         
                               ,,#################################,,                 
                          ,,##########################################,,             
                       ,#########################################, ''#####,          
                    ,#############################################,,   '####,        
                  ,##################################################,,,,####,       
                ,###########''''           ''''###############################       
              ,#####''   ,,,,##########,,,,          '''####'''          '####       
            ,##' ,,,,###########################,,,                        '##       
           ' ,,###''''                  '''############,,,                           
         ,,##''                                '''############,,,,        ,,,,,,###''
      ,#''                                            '''#######################'''  
     '                                                          ''''####''''         
             ,#######,   #######,   ,#######,      ##                                
            ,#'     '#,  ##    ##  ,#'     '#,    #''#        ,####,   ,####,        
            ##       ##  ##   ,#'  ##            #'  '#       #'       #'  '#        
            ##       ##  #######   ##           ,######,      #####,   #    #        
            '#,     ,#'  ##    ##  '#,     ,#' ,#      #,     #,   #   #,  ,#        
             '#######'   ##     ##  '#######'  #'      '#     '####' # '####'        



                #########################################################
                #                        -***-                          #
                #          Department of theory and spectroscopy        #
                #                                                       #
                #                      Frank Neese                      #
                #                                                       #
                #     Directorship, Architecture, Infrastructure        #
                #                    SHARK, DRIVERS                     #
                #        Core code/Algorithms in most modules           #
                #                                                       #
                #        Max Planck Institute fuer Kohlenforschung      #
                #                Kaiser Wilhelm Platz 1                 #
                #                 D-45470 Muelheim/Ruhr                 #
                #                      Germany                          #
                #                                                       #
                #                  All rights reserved                  #
                #                        -***-                          #
                #########################################################


                         Program Version 6.0.1  -  RELEASE   -


 With contributions from (in alphabetic order):
[Max-Planck-Institut fuer Kohlenforschung]                               
  Daniel Aravena         : Magnetic Suceptibility                        
  Michael Atanasov       : Ab Initio Ligand Field Theory (pilot matlab implementation)
  Alexander A. Auer      : GIAO ZORA, VPT2 properties, NMR spectrum      
  Ute Becker             : All parallelization in ORCA, NUMFREQ, NUMCALC 
  Giovanni Bistoni       : ED, misc. LED, open-shell LED, HFLD           
  Martin Brehm           : Molecular dynamics                            
  Dmytro Bykov           : pre 5.0 version of the SCF Hessian            
  Marcos Casanova-Páez   : Triplet and SCS-CIS(D). UHF-(DLPNO)-IP/EA/STEOM-CCSD. UHF-CVS-IP/STEOM-CCSD   
  Vijay G. Chilkuri      : MRCI spin determinant printing, contributions to CSF-ICE 
  Pauline Colinet        : FMM embedding                                 
  Dipayan Datta          : RHF DLPNO-CCSD density                        
  Achintya Kumar Dutta   : EOM-CC, STEOM-CC                              
  Nicolas Foglia         : Exact transition moments, OPA infrastructure, MCD improvements    
  Dmitry Ganyushin       : Spin-Orbit,Spin-Spin,Magnetic field MRCI      
  Miquel Garcia-Rates    : C-PCM and meta-GGA Hessian, CCSD/C-PCM, Gaussian charge scheme 
  Tiago L. C. Gouveia    : GS-ROHF, GS-ROCIS                             
  Yang Guo               : DLPNO-NEVPT2, F12-NEVPT2, CIM, IAO-localization        
  Andreas Hansen         : Spin unrestricted coupled pair/coupled cluster methods 
  Ingolf Harden          : AUTO-CI MPn and infrastructure                
  Benjamin Helmich-Paris : MC-RPA, TRAH-(SCF,CASSCF), AVAS, COSX integrals, SCF dyn. polar. 
  Lee Huntington         : MR-EOM, pCC                                   
  Robert Izsak           : Overlap fitted RIJCOSX, COSX-SCS-MP3, EOM     
  Riya Kayal             : Wick's Theorem for AUTO-CI, AUTO-CI UHF-CCSDT 
  Emily Kempfer          : AUTO-CI, RHF CISDT and CCSDT                  
  Christian Kollmar      : KDIIS, OOCD, Brueckner-CCSD(T), CCSD density, CASPT2, CASPT2-K, improved NEVPT2 
  Axel Koslowski         : Symmetry handling                             
  Simone Kossmann        : meta-GGA functionals, TD-DFT gradient, OOMP2, (MP2 Hessian; deprecated post 5.0) 
  Lucas Lang             : DCDCAS                                        
  Marvin Lechner         : AUTO-CI (C++ implementation), FIC-MRCC        
  Spencer Leger          : CASSCF response                               
  Dagmar Lenk            : GEPOL surface, SMD, ORCA-2-JSON               
  Dimitrios Liakos       : Extrapolation schemes; Compound Job, initial MDCI parallelization 
  Dimitrios Manganas     : Further ROCIS development; embedding schemes. LFT, Crystal Embedding 
  Dimitrios Pantazis     : SARC Basis sets                               
  Anastasios Papadopoulos: AUTO-CI, single reference methods and gradients 
  Taras Petrenko         : pre 6.0 DFT Hessian and TD-DFT gradient, (ASA, deprecated), ECA, 1-Electron XAS/XES, NRVS 
  Peter Pinski           : DLPNO-MP2, DLPNO-MP2 Gradient                 
  Christoph Reimann      : Effective Core Potentials                     
  Marius Retegan         : Local ZFS, SOC                                
  Christoph Riplinger    : Optimizer, TS searches, QM/MM, DLPNO-CCSD(T), (RO)-DLPNO pert. Triples 
  Michael Roemelt        : Original ROCIS implementation                 
  Masaaki Saitow         : Open-shell DLPNO-CCSD energy and density      
  Barbara Sandhoefer     : DKH picture change effects                    
  Kantharuban Sivalingam : CASSCF convergence/infrastructure, NEVPT2 and variants, FIC-MRCI 
  Bernardo de Souza      : ESD, SOC TD-DFT                               
  Georgi L. Stoychev     : AutoAux, RI-MP2 NMR, DLPNO-MP2 response, X2C  
  Van Anh Tran           : RI-MP2 g-tensors                              
  Willem Van den Heuvel  : Paramagnetic NMR                              
  Zikuan Wang            : NOTCH, Electric field optimization            
  Frank Wennmohs         : Technical directorship and infrastructure     
  Hang Xu                : AUTO-CI-Response properties                   
                                                                         
[FACCTs GmbH]                                                            
  Markus Bursch, Miquel Garcia-Rates, Christoph Riplinger, Bernardo de Souza, Georgi L. Stoychev 
                                                                 
  APM, Basis sets (HGBS, AHGBS, def-TZVP (Ac-Lr), def2-XVPD (La-Lu)), CI-OPT, improved COSX, DLPNO-Multilevel,           
  DOCKER, DRACO, updates on ESD, GOAT, IRC, LR-CPCM, MBIS, meta-GGA TD-DFT gradient, ML-optimized integration grids, 
  MM, NACMEs, nearIR, NEB, NEB-TS, NL-DFT gradient (VV10), 2- and 3-layer-ONIOM, interface openCOSMO-RS, QMMM,   
  Crystal-QMMM, SF, symmetry and pop. for TD-DFT, r2SCAN hybrids, SOLVATOR                                   
                                                                         
[Other institutions]                                                     
  V. Asgeirsson          : NEB                                           
  Christoph Bannwarth    : sTDA-DFT, sTD-DFT, PBEh-3c, B97-3c, D3        
  Sebastian Ehlert       : rSCAN, r2SCAN, r2SCAN-3c, D4, dhf basis sets  
  Marvin Friede          : D4 for Fr, Ra, Ac-Lr                          
  Lars Goerigk           : TD-DFT with DH, B97 family of functionals     
  Stefan Grimme          : VdW corrections, initial TS optimization, DFT functionals, gCP, sTDA/sTD-DF 
  Waldemar Hujo          : DFT-NL                                        
  H. Jonsson             : NEB                                           
  Holger Kruse           : gCP                                           
  Marcel Mueller         : wB97X-3c, vDZP basis set                      
  Hagen Neugebauer       : wr2SCAN                                       
  Tobias Risthaus        : range-separated hybrid DFT                    
  Lukas Wittmann         : regularized MP2, r2SCAN double-hybrids, wr2SCAN        
                                                                         
We gratefully acknowledge several colleagues who have allowed us to      
interface, adapt or use parts of their codes:                            
  Ed Valeev, F. Pavosevic, A. Kumar             : LibInt (2-el integral package), F12 methods 
  Garnet Chan, S. Sharma, J. Yang, R. Olivares  : DMRG                   
  Ulf Ekstrom                                   : XCFun DFT Library      
  Mihaly Kallay                                 : mrcc  (arbitrary order and MRCC methods)
  Frank Weinhold                                : gennbo (NPA and NBO analysis)           
  Simon Mueller                                 : openCOSMO-RS                            
  Christopher J. Cramer and Donald G. Truhlar   : smd solvation model                     
  S Lehtola, MJT Oliveira, MAL Marques          : LibXC Library                           
  Liviu Ungur et al                             : ANISO software                          


 Your calculation uses the libint2 library for the computation of 2-el integrals
 For citations please refer to: http://libint.valeyev.net

 Your ORCA version has been built with support for libXC version: 6.2.2
 For citations please refer to: https://libxc.gitlab.io

 This ORCA versions uses:
   CBLAS   interface :  Fast vector & matrix operations
   LAPACKE interface :  Fast linear algebra routines
   SCALAPACK package :  Parallel linear algebra routines
   Shared memory     :  Shared parallel matrices
   BLAS/LAPACK       :  OpenBLAS 0.3.27  USE64BITINT DYNAMIC_ARCH NO_AFFINITY SapphireRapids SINGLE_THREADED
        Core in use  :  SapphireRapids
   Copyright (c) 2011-2014, The OpenBLAS Project




***************************************
The coordinates will be read from file: /scratch/kx58/rs2200/dhdft/inputs/compas3x-xyzs/hc_c24h14_0pent_9.xyz
***************************************


Your calculation utilizes the atom-pairwise dispersion correction
based on EEQ partial charges (D4)


================================================================================

----- Orbital basis set information -----
Your calculation utilizes the basis: def2-TZVP
   F. Weigend and R. Ahlrichs, Phys. Chem. Chem. Phys. 7, 3297 (2005).

================================================================================
                                        WARNINGS
                       Please study these warnings very carefully!
================================================================================


WARNING: No MP2 level density has been requested!
         To calculate MP2 level properties use
         %mp2 Density relaxed end
         or
         %mp2 Density unrelaxed end
         Otherwise for double-hybrid DFT only the energy is correct!

================================================================================
                                       INPUT FILE
================================================================================
NAME = compas3x_hc_c24h14_0pent_9_tz_nori.inp
|  1> ! RKS revDSD-PBEP86-D4/2021 defgrid3  NORI NOPOP NoFrozencore NoUseSym
|  2> 
|  3> %basis
|  4> Basis "def2-TZVP"
|  5> 
|  6> 
|  7> end
|  8> 
|  9> %method
| 10> ScalHFX 0.69
| 11> ScalDFX 0.31
| 12> ScalDFC 0.4038
| 13> ScalLDAC 0.4038
| 14> 
| 15> D4S6 0.4612
| 16> D4S8 0.0
| 17> D4A1 0.44
| 18> D4A2 3.60
| 19> end
| 20> 
| 21> %mp2
| 22> PS 0.5979
| 23> PT 0.0571
| 24> end
| 25> 
| 26> %pal
| 27> nprocs 104
| 28> end
| 29> 
| 30> *XYZFILE 0 1 /scratch/kx58/rs2200/dhdft/inputs/compas3x-xyzs/hc_c24h14_0pent_9.xyz
| 31> 
| 32>                          ****END OF INPUT****
================================================================================

                       ****************************
                       * Single Point Calculation *
                       ****************************

---------------------------------
CARTESIAN COORDINATES (ANGSTROEM)
---------------------------------
  C      1.779810   -0.604854    0.004850
  C      0.368642   -0.608241    0.005975
  C     -0.368591    0.608345    0.006008
  C      0.338228    1.847633    0.006803
  C      1.760512    1.820751    0.009180
  C      2.445709    0.654218    0.007862
  C      2.493252   -1.841485    0.000543
  C      1.762779   -3.064445    0.000812
  C      0.363200   -3.038497    0.004836
  C     -0.338176   -1.847530    0.006462
  C     -1.760461   -1.820647    0.008525
  C     -2.445658   -0.654114    0.007264
  C     -1.779758    0.604958    0.004645
  C     -2.493199    1.841591    0.000469
  C     -1.762726    3.064550    0.000954
  C     -0.363148    3.038601    0.005176
  C      3.901802   -1.924992   -0.005282
  C      4.548190   -3.130249   -0.010303
  C      3.822852   -4.330987   -0.009362
  C      2.459690   -4.294724   -0.003780
  C     -3.901749    1.925099   -0.005399
  C     -4.548136    3.130357   -0.010321
  C     -3.822798    4.331094   -0.009250
  C     -2.459636    4.294830   -0.003584
  H      2.285271    2.765788    0.011617
  H      3.523432    0.684438    0.009611
  H     -0.178247   -3.974541    0.005684
  H     -2.285220   -2.765685    0.010657
  H     -3.523381   -0.684335    0.008729
  H      0.178299    3.974645    0.006207
  H      4.495132   -1.024441   -0.006581
  H      5.628020   -3.163126   -0.015226
  H      4.349661   -5.273897   -0.013328
  H      1.883159   -5.209001   -0.003280
  H     -4.495081    1.024549   -0.006780
  H     -5.627967    3.163235   -0.015259
  H     -4.349606    5.274005   -0.013169
  H     -1.883104    5.209106   -0.002961

----------------------------
CARTESIAN COORDINATES (A.U.)
----------------------------
  NO LB      ZA    FRAG     MASS         X           Y           Z
   0 C     6.0000    0    12.011    3.363353   -1.143008    0.009165
   1 C     6.0000    0    12.011    0.696633   -1.149408    0.011291
   2 C     6.0000    0    12.011   -0.696535    1.149605    0.011353
   3 C     6.0000    0    12.011    0.639159    3.491521    0.012855
   4 C     6.0000    0    12.011    3.326886    3.440720    0.017348
   5 C     6.0000    0    12.011    4.621721    1.236292    0.014857
   6 C     6.0000    0    12.011    4.711563   -3.479903    0.001026
   7 C     6.0000    0    12.011    3.331169   -5.790962    0.001534
   8 C     6.0000    0    12.011    0.686349   -5.741927    0.009138
   9 C     6.0000    0    12.011   -0.639061   -3.491325    0.012211
  10 C     6.0000    0    12.011   -3.326789   -3.440525    0.016109
  11 C     6.0000    0    12.011   -4.621624   -1.236096    0.013726
  12 C     6.0000    0    12.011   -3.363255    1.143205    0.008777
  13 C     6.0000    0    12.011   -4.711464    3.480102    0.000886
  14 C     6.0000    0    12.011   -3.331069    5.791160    0.001803
  15 C     6.0000    0    12.011   -0.686250    5.742124    0.009780
  16 C     6.0000    0    12.011    7.373337   -3.637708   -0.009981
  17 C     6.0000    0    12.011    8.594833   -5.915314   -0.019471
  18 C     6.0000    0    12.011    7.224144   -8.184379   -0.017691
  19 C     6.0000    0    12.011    4.648141   -8.115852   -0.007143
  20 C     6.0000    0    12.011   -7.373237    3.637910   -0.010202
  21 C     6.0000    0    12.011   -8.594732    5.915518   -0.019504
  22 C     6.0000    0    12.011   -7.224041    8.184582   -0.017479
  23 C     6.0000    0    12.011   -4.648039    8.116052   -0.006773
  24 H     1.0000    0     1.008    4.318536    5.226581    0.021953
  25 H     1.0000    0     1.008    6.658322    1.293400    0.018163
  26 H     1.0000    0     1.008   -0.336837   -7.510794    0.010741
  27 H     1.0000    0     1.008   -4.318440   -5.226387    0.020138
  28 H     1.0000    0     1.008   -6.658225   -1.293205    0.016495
  29 H     1.0000    0     1.008    0.336936    7.510990    0.011729
  30 H     1.0000    0     1.008    8.494569   -1.935913   -0.012435
  31 H     1.0000    0     1.008   10.635417   -5.977442   -0.028774
  32 H     1.0000    0     1.008    8.219668   -9.966221   -0.025187
  33 H     1.0000    0     1.008    3.558655   -9.843585   -0.006199
  34 H     1.0000    0     1.008   -8.494471    1.936117   -0.012812
  35 H     1.0000    0     1.008  -10.635315    5.977648   -0.028836
  36 H     1.0000    0     1.008   -8.219564    9.966425   -0.024886
  37 H     1.0000    0     1.008   -3.558551    9.843784   -0.005596

--------------------------------
INTERNAL COORDINATES (ANGSTROEM)
--------------------------------
 C      0   0   0     0.000000000000     0.00000000     0.00000000
 C      1   0   0     1.411171857261     0.00000000     0.00000000
 C      2   1   0     1.422530011820   121.07772851     0.00000000
 C      3   2   1     1.426685030918   119.08680961   359.91171119
 C      4   3   2     1.422540083582   118.61512057   359.92456707
 C      5   4   3     1.352884372972   121.51174800     0.14005796
 C      1   2   3     1.427682188236   119.84416232   180.19905142
 C      7   1   2     1.424507677237   119.16829076   359.84458888
 C      8   7   1     1.399824547915   119.78760278     0.00000000
 C      9   8   7     1.382148708874   121.55661231     0.10387298
 C     10   9   8     1.422540049552   121.57727213   179.90420825
 C     11  10   9     1.352884389448   121.51175149   180.14161983
 C      3   2   1     1.411171894803   121.07773243   179.88205171
 C     13   3   2     1.427682232184   119.84416509   180.19637219
 C     14  13   3     1.424507702452   119.16828876   359.85178738
 C      4   3   2     1.382148669936   119.80761037   179.92019525
 C      7   1   2     1.411035003272   123.37488515   179.78411893
 C     17   7   1     1.367657792057   121.59831997   180.05030004
 C     18  17   7     1.402813603965   120.65940691     0.00000000
 C     19  18  17     1.363655689947   119.61127138     0.00000000
 C     14  13   3     1.411035008134   123.37489999   179.79276866
 C     21  14  13     1.367657790023   121.59832611   180.05180808
 C     22  21  14     1.402813600360   120.65941062     0.00000000
 C     23  22  21     1.363655651325   119.61126537     0.00000000
 H      5   4   3     1.080959176763   117.95976783   180.11129706
 H      6   5   4     1.078147541443   118.82274727   179.99028468
 H      9   8   7     1.081361910392   118.98473683   180.04195090
 H     11  10   9     1.080959159680   117.95976663     0.11188307
 H     12  11  10     1.078147495180   118.82272652   179.98806503
 H     16   4   3     1.081361918028   119.45862158   179.97458351
 H     17   7   1     1.078441274329   119.98618199     0.00000000
 H     18  17   7     1.080342033811   119.94941778   179.96815016
 H     19  18  17     1.080103371036   119.67208602   180.00329314
 H     20  19  18     1.080875045497   120.71100657   179.98052810
 H     21  14  13     1.078441240771   119.98619089     0.00000000
 H     22  21  14     1.080341982982   119.94941489   179.96941127
 H     23  22  21     1.080103382521   119.67208758   180.00144772
 H     24  23  22     1.080875047758   120.71100561   179.98195672

---------------------------
INTERNAL COORDINATES (A.U.)
---------------------------
 C      0   0   0     0.000000000000     0.00000000     0.00000000
 C      1   0   0     2.666728338120     0.00000000     0.00000000
 C      2   1   0     2.688192139623   121.07772851     0.00000000
 C      3   2   1     2.696043987801   119.08680961   359.91171119
 C      4   3   2     2.688211172495   118.61512057   359.92456707
 C      5   4   3     2.556580955779   121.51174800     0.14005796
 C      1   2   3     2.697928342044   119.84416232   180.19905142
 C      7   1   2     2.691929385646   119.16829076   359.84458888
 C      8   7   1     2.645285031100   119.78760278     0.00000000
 C      9   8   7     2.611882536125   121.55661231     0.10387298
 C     10   9   8     2.688211108189   121.57727213   179.90420825
 C     11  10   9     2.556580986915   121.51175149   180.14161983
 C      3   2   1     2.666728409064   121.07773243   179.88205171
 C     13   3   2     2.697928425092   119.84416509   180.19637219
 C     14  13   3     2.691929433296   119.16828876   359.85178738
 C      4   3   2     2.611882462542   119.80761037   179.92019525
 C      7   1   2     2.666469721560   123.37488515   179.78411893
 C     17   7   1     2.584498671912   121.59831997   180.05030004
 C     18  17   7     2.650933528433   120.65940691     0.00000000
 C     19  18  17     2.576935794963   119.61127138     0.00000000
 C     14  13   3     2.666469730748   123.37489999   179.79276866
 C     21  14  13     2.584498668068   121.59832611   180.05180808
 C     22  21  14     2.650933521620   120.65941062     0.00000000
 C     23  22  21     2.576935721979   119.61126537     0.00000000
 H      5   4   3     2.042716806032   117.95976783   180.11129706
 H      6   5   4     2.037403585288   118.82274727   179.99028468
 H      9   8   7     2.043477862294   118.98473683   180.04195090
 H     11  10   9     2.042716773749   117.95976663     0.11188307
 H     12  11  10     2.037403497864   118.82272652   179.98806503
 H     16   4   3     2.043477876724   119.45862158   179.97458351
 H     17   7   1     2.037958659999   119.98618199     0.00000000
 H     18  17   7     2.041550574867   119.94941778   179.96815016
 H     19  18  17     2.041099567584   119.67208602   180.00329314
 H     20  19  18     2.042557820980   120.71100657   179.98052810
 H     21  14  13     2.037958596583   119.98619089     0.00000000
 H     22  21  14     2.041550478814   119.94941489   179.96941127
 H     23  22  21     2.041099589286   119.67208758   180.00144772
 H     24  23  22     2.042557825252   120.71100561   179.98195672

---------------------
BASIS SET INFORMATION
---------------------
There are 2 groups of distinct atoms

 Group   1 Type C   : 11s6p2d1f contracted to 5s3p2d1f pattern {62111/411/11/1}
 Group   2 Type H   : 5s1p contracted to 3s1p pattern {311/1}

Atom   0C    basis set group =>   1
Atom   1C    basis set group =>   1
Atom   2C    basis set group =>   1
Atom   3C    basis set group =>   1
Atom   4C    basis set group =>   1
Atom   5C    basis set group =>   1
Atom   6C    basis set group =>   1
Atom   7C    basis set group =>   1
Atom   8C    basis set group =>   1
Atom   9C    basis set group =>   1
Atom  10C    basis set group =>   1
Atom  11C    basis set group =>   1
Atom  12C    basis set group =>   1
Atom  13C    basis set group =>   1
Atom  14C    basis set group =>   1
Atom  15C    basis set group =>   1
Atom  16C    basis set group =>   1
Atom  17C    basis set group =>   1
Atom  18C    basis set group =>   1
Atom  19C    basis set group =>   1
Atom  20C    basis set group =>   1
Atom  21C    basis set group =>   1
Atom  22C    basis set group =>   1
Atom  23C    basis set group =>   1
Atom  24H    basis set group =>   2
Atom  25H    basis set group =>   2
Atom  26H    basis set group =>   2
Atom  27H    basis set group =>   2
Atom  28H    basis set group =>   2
Atom  29H    basis set group =>   2
Atom  30H    basis set group =>   2
Atom  31H    basis set group =>   2
Atom  32H    basis set group =>   2
Atom  33H    basis set group =>   2
Atom  34H    basis set group =>   2
Atom  35H    basis set group =>   2
Atom  36H    basis set group =>   2
Atom  37H    basis set group =>   2


           ************************************************************
           *        Program running with 104 parallel MPI-processes   *
           *              working on a common directory               *
           ************************************************************
------------------------------------------------------------------------------
                             ORCA STARTUP CALCULATIONS
------------------------------------------------------------------------------
------------------------------------------------------------------------------
                   ___                                                        
                  /   \      - P O W E R E D   B Y -                         
                 /     \                                                     
                 |  |  |   _    _      __       _____    __    __             
                 |  |  |  | |  | |    /  \     |  _  \  |  |  /  |          
                  \  \/   | |  | |   /    \    | | | |  |  | /  /          
                 / \  \   | |__| |  /  /\  \   | |_| |  |  |/  /          
                |  |  |   |  __  | /  /__\  \  |    /   |      \           
                |  |  |   | |  | | |   __   |  |    \   |  |\   \          
                \     /   | |  | | |  |  |  |  | |\  \  |  | \   \       
                 \___/    |_|  |_| |__|  |__|  |_| \__\ |__|  \__/        
                                                                              
                      - O R C A' S   B I G   F R I E N D -                    
                                      &                                       
                       - I N T E G R A L  F E E D E R -                       
                                                                              
 v1 FN, 2020, v2 2021, v3 2022-2024                                           
------------------------------------------------------------------------------


----------------------
SHARK INTEGRAL PACKAGE
----------------------

Number of atoms                             ...     38
Number of basis functions                   ...    828
Number of shells                            ...    320
Maximum angular momentum                    ...      3
Integral batch strategy                     ... SHARK/LIBINT Hybrid
RI-J (if used) integral strategy            ... SPLIT-RIJ (Revised 2003 algorithm where possible)
Printlevel                                  ...      1
Contraction scheme used                     ... SEGMENTED contraction
Prescreening option                         ... SCHWARTZ
   Thresh                                   ... 1.000e-10
   Tcut                                     ... 1.000e-11
   Tpresel                                  ... 1.000e-11 
Coulomb Range Separation                    ... NOT USED
Exchange Range Separation                   ... NOT USED
Multipole approximations                    ... NOT USED
Finite Nucleus Model                        ... NOT USED
CABS basis                                  ... NOT available
Auxiliary Coulomb fitting basis             ... NOT available
Auxiliary J/K fitting basis                 ... NOT available
Auxiliary Correlation fitting basis         ... NOT available
Auxiliary 'external' fitting basis          ... NOT available

Checking pre-screening integrals            ... done (  0.0 sec) Dimension = 320
Check shell pair data                       ... done (  0.0 sec)
Shell pair information
Shell pair cut-off parameter TPreSel        ...   1.0e-11
Total number of shell pairs                 ...     51360
Shell pairs after pre-screening             ...     35422
Total number of primitive shell pairs       ...    159900
Primitive shell pairs kept                  ...     73597
          la=0 lb=0:   8515 shell pairs
          la=1 lb=0:  10026 shell pairs
          la=1 lb=1:   2915 shell pairs
          la=2 lb=0:   5240 shell pairs
          la=2 lb=1:   3060 shell pairs
          la=2 lb=2:    825 shell pairs
          la=3 lb=0:   2442 shell pairs
          la=3 lb=1:   1446 shell pairs
          la=3 lb=2:    760 shell pairs
          la=3 lb=3:    193 shell pairs

Calculating one electron integrals          ... done (  0.8 sec)
Calculating Nuclear repulsion               ... done (  0.0 sec) ENN=   1785.753181570586 Eh

Diagonalization of the overlap matrix:
Smallest eigenvalue                        ... 2.850e-06
Time for diagonalization                   ...    0.130 sec
Threshold for overlap eigenvalues          ... 1.000e-07
Number of eigenvalues below threshold      ... 0
Time for construction of square roots      ...    0.052 sec
Total time needed                          ...    0.204 sec

-------------------
DFT GRID GENERATION
-------------------

General Integration Accuracy     IntAcc      ... 4.959
Radial Grid Type                 RadialGrid  ... OptM3 with GC (2021)
Angular Grid (max. ang.)         AngularGrid ... 6 (Lebedev-590)
Angular grid pruning method      GridPruning ... 4 (adaptive)
Weight generation scheme         WeightScheme... mBecke (2022)
Basis function cutoff            BFCut       ... 1.0000e-10
Integration weight cutoff        WCut        ... 1.0000e-14
Partially contracted basis set               ... off
Rotationally invariant grid construction     ... off
Angular grids for H and He will be reduced by one unit

Total number of grid points                  ...   457346
Total number of batches                      ...     7168
Average number of points per batch           ...       63
Average number of grid points per atom       ...    12035
Initializing property integral containers    ... done (  0.0 sec)

SHARK setup successfully completed in   5.6 seconds

Maximum memory used throughout the entire STARTUP-calculation: 115.1 MB


           ************************************************************
           *        Program running with 104 parallel MPI-processes   *
           *              working on a common directory               *
           ************************************************************
-------------------------------------------------------------------------------
                                 ORCA GUESS
                   Start orbitals & Density for SCF / CASSCF
-------------------------------------------------------------------------------

------------
SCF SETTINGS
------------
Hamiltonian:
 Density Functional     Method          .... DFT(GTOs)
 Exchange Functional    Exchange        .... PBE
   PBE kappa parameter   XKappa         ....  0.804000
   PBE mue parameter    XMuePBE         ....  0.219520
 Correlation Functional Correlation     .... P86
 LDA part of GGA corr.  LDAOpt          .... VWN-5
 Gradients option       PostSCFGGA      .... off
 Hybrid DFT is turned on
   Fraction HF Exchange ScalHFX         ....  0.690000
   Scaling of DF-GGA-X  ScalDFX         ....  0.310000
   Scaling of DF-GGA-C  ScalDFC         ....  0.403800
   Scaling of DF-LDA-C  ScalLDAC        ....  0.403800
   Perturbative correction              ....  1.000000


General Settings:
 Integral files         IntName         .... compas3x_hc_c24h14_0pent_9_tz_nori
 Hartree-Fock type      HFTyp           .... RHF
 Total Charge           Charge          ....    0
 Multiplicity           Mult            ....    1
 Number of Electrons    NEL             ....  158
 Basis Dimension        Dim             ....  828
 Nuclear Repulsion      ENuc            ....   1785.7531815706 Eh

Convergence Acceleration:
 AO-DIIS                CNVDIIS         .... on
   Start iteration      DIISMaxIt       ....    12
   Startup error        DIISStart       ....  0.200000
   # of expansion vecs  DIISMaxEq       ....     5
   Bias factor          DIISBfac        ....   1.050
   Max. coefficient     DIISMaxC        ....  10.000
 MO-DIIS                CNVKDIIS        .... off
 Trust-Rad. Augm. Hess. CNVTRAH         .... auto
   Auto Start mean grad. ratio tolernc. ....  1.125000
   Auto Start start iteration           ....    50
   Auto Start num. interpolation iter.  ....    10
   Max. Number of Micro iterations      ....    24
   Max. Number of Macro iterations      .... Maxiter - #DIIS iter
   Number of Davidson start vectors     ....     2
   Converg. threshold    (grad. norm)   ....   5.000e-05
   Grad. Scal. Fac. for Micro threshold ....   0.100
   Minimum threshold for Micro iter.    ....   1.000e-02
   NR start threshold (gradient norm)   ....   1.000e-04
   Initial trust radius                 ....   0.400
   Minimum AH scaling param. (alpha)    ....   1.000
   Maximum AH scaling param. (alpha)    .... 1000.000
   Quad. conv. algorithm                .... NR
   White noise on init. David. guess    .... on
   Maximum white noise                  ....   0.010
   Pseudo random numbers                .... off
   Inactive MOs                         .... canonical
   Orbital update algorithm             .... Taylor
   Preconditioner                       .... Diag
   Full preconditioner red. dimension   ....   250
 SOSCF                  CNVSOSCF        .... on
   Start iteration      SOSCFMaxIt      ....   150
   Startup grad/error   SOSCFStart      ....  0.003300
   Hessian update       SOSCFHessUp     .... L-BFGS
 Level Shifting         CNVShift        .... on
   Level shift para.    LevelShift      ....    0.2500
   Turn off err/grad.   ShiftErr        ....    0.0010
 Zerner damping         CNVZerner       .... off
 Static damping         CNVDamp         .... on
   Fraction old density DampFac         ....    0.7000
   Max. Damping (<1)    DampMax         ....    0.9800
   Min. Damping (>=0)   DampMin         ....    0.0000
   Turn off err/grad.   DampErr         ....    0.1000

SCF Procedure:
 Maximum # iterations   MaxIter         ....   125
 SCF integral mode      SCFMode         .... Direct
   Integral package                     .... SHARK and LIBINT hybrid scheme
 Reset frequency        DirectResetFreq ....    20
 Integral Threshold     Thresh          ....  1.000e-10 Eh
 Primitive CutOff       TCut            ....  1.000e-11 Eh

Convergence Tolerance:
 Convergence Check Mode ConvCheckMode   .... Total+1el-Energy
 Convergence forced     ConvForced      .... 0
 Energy Change          TolE            ....  1.000e-06 Eh
 1-El. energy change                    ....  1.000e-03 Eh
 Orbital Gradient       TolG            ....  5.000e-05
 Orbital Rotation angle TolX            ....  5.000e-05
 DIIS Error             TolErr          ....  1.000e-06

------------------------------
INITIAL GUESS: MODEL POTENTIAL
------------------------------
Loading Hartree-Fock densities                     ... done
Calculating cut-offs                               ... done
Initializing the effective Hamiltonian             ... done
Setting up the integral package (SHARK)            ... done
Starting the Coulomb interaction                   ... done (   0.1 sec)
Making the grid                                    ... done (   0.2 sec)
Mapping shells                                     ... done
Starting the XC term evaluation                    ... done (   0.1 sec)
  promolecular density results
     # of electrons  =    157.980883016
     EX              =   -127.045732316
     EC              =      0.200899531
     EX+EC           =   -126.844832786
Transforming the Hamiltonian                       ... done (   0.1 sec)
Diagonalizing the Hamiltonian                      ... done (   0.1 sec)
Back transforming the eigenvectors                 ... done (   0.1 sec)
Now organizing SCF variables                       ... done
                      ------------------
                      INITIAL GUESS DONE (   0.9 sec)
                      ------------------
             **** ENERGY FILE WAS UPDATED (compas3x_hc_c24h14_0pent_9_tz_nori.en.tmp) ****
Finished Guess after  19.7 sec
Maximum memory used throughout the entire GUESS-calculation: 62.7 MB


           ************************************************************
           *        Program running with 104 parallel MPI-processes   *
           *              working on a common directory               *
           ************************************************************

-------------------------------------------------------------------------------------------
                                      ORCA LEAN-SCF
                              memory conserving SCF solver
-------------------------------------------------------------------------------------------

----------------------------------------D-I-I-S--------------------------------------------
Iteration    Energy (Eh)           Delta-E    RMSDP     MaxDP     DIISErr   Damp  Time(sec)
-------------------------------------------------------------------------------------------
               ***  Starting incremental Fock matrix formation  ***
    1    -919.0129223490237109     0.00e+00  9.36e-04  3.54e-02  1.48e-01  0.700   7.0
    2    -919.1949526246642108    -1.82e-01  7.89e-04  3.53e-02  9.28e-02  0.700   6.6
                               ***Turning on AO-DIIS***
    3    -919.3030254270149726    -1.08e-01  5.64e-04  2.32e-02  5.20e-02  0.700   6.6
    4    -919.3705427061829596    -6.75e-02  1.32e-03  4.90e-02  3.56e-02  0.000   6.0
    5    -919.5175771058613918    -1.47e-01  1.02e-04  3.13e-03  3.68e-03  0.000   6.5
                              *** Initializing SOSCF ***
---------------------------------------S-O-S-C-F--------------------------------------
Iteration    Energy (Eh)           Delta-E    RMSDP     MaxDP     MaxGrad    Time(sec)
--------------------------------------------------------------------------------------
    6    -919.5178980023308668    -3.21e-04  5.55e-05  1.99e-03  1.21e-03     6.1
               *** Restarting incremental Fock matrix formation ***
    7    -919.5179844703050094    -8.65e-05  1.10e-04  4.92e-03  9.73e-04     6.6
    8    -919.5180301763632542    -4.57e-05  6.78e-05  2.41e-03  4.27e-04     5.2
    9    -919.5180408850662843    -1.07e-05  4.53e-05  1.98e-03  2.70e-04     5.2
   10    -919.5180440823853587    -3.20e-06  4.57e-05  4.48e-03  6.89e-05     5.0
   11    -919.5180441610871185    -7.87e-08  3.54e-05  2.27e-03  4.33e-05     5.0
                 **** Energy Check signals convergence ****

               *****************************************************
               *                     SUCCESS                       *
               *           SCF CONVERGED AFTER  11 CYCLES          *
               *****************************************************

             **** ENERGY FILE WAS UPDATED (compas3x_hc_c24h14_0pent_9_tz_nori.en.tmp) ****

----------------
TOTAL SCF ENERGY
----------------

Total Energy       :       -919.51804416108712 Eh          -25021.35804 eV

Components:
Nuclear Repulsion  :       1785.75318157058587 Eh           48592.81448 eV
Electronic Energy  :      -2705.27122573167298 Eh          -73614.17252 eV
One Electron Energy:      -4791.97284060630955 Eh         -130396.21021 eV
Two Electron Energy:       2086.70161487463656 Eh           56782.03768 eV

Virial components:
Potential Energy   :      -1837.07514593378255 Eh          -49989.35613 eV
Kinetic Energy     :        917.55710177269543 Eh           24967.99809 eV
Virial Ratio       :          2.00213713390110

DFT components:
N(Alpha)           :       79.000016868735 electrons
N(Beta)            :       79.000016868735 electrons
N(Total)           :      158.000033737470 electrons
E(X)               :      -40.065649982161 Eh       
E(C)               :       -2.355298789651 Eh       
E(XC)              :      -42.420948771812 Eh       

---------------
SCF CONVERGENCE
---------------

  Last Energy change         ...    7.8702e-08  Tolerance :   1.0000e-06
  Last MAX-Density change    ...    2.2735e-03  Tolerance :   1.0000e-05
  Last RMS-Density change    ...    3.5368e-05  Tolerance :   1.0000e-06
  Last DIIS Error            ...    1.2095e-03  Tolerance :   1.0000e-06
  Last Orbital Gradient      ...    4.3314e-05  Tolerance :   5.0000e-05
  Last Orbital Rotation      ...    1.0506e-04  Tolerance :   5.0000e-05


----------------
ORBITAL ENERGIES
----------------

  NO   OCC          E(Eh)            E(eV) 
   0   2.0000     -10.835317      -294.8440 
   1   2.0000     -10.835303      -294.8436 
   2   2.0000     -10.833482      -294.7940 
   3   2.0000     -10.833474      -294.7938 
   4   2.0000     -10.832820      -294.7760 
   5   2.0000     -10.832044      -294.7549 
   6   2.0000     -10.830069      -294.7012 
   7   2.0000     -10.830067      -294.7011 
   8   2.0000     -10.829914      -294.6970 
   9   2.0000     -10.829891      -294.6963 
  10   2.0000     -10.823174      -294.5135 
  11   2.0000     -10.823171      -294.5135 
  12   2.0000     -10.821856      -294.4777 
  13   2.0000     -10.821856      -294.4777 
  14   2.0000     -10.821686      -294.4730 
  15   2.0000     -10.821684      -294.4730 
  16   2.0000     -10.821406      -294.4654 
  17   2.0000     -10.821406      -294.4654 
  18   2.0000     -10.821354      -294.4640 
  19   2.0000     -10.821352      -294.4639 
  20   2.0000     -10.820342      -294.4365 
  21   2.0000     -10.820342      -294.4365 
  22   2.0000     -10.819430      -294.4117 
  23   2.0000     -10.819430      -294.4117 
  24   2.0000      -1.096849       -29.8468 
  25   2.0000      -1.070149       -29.1202 
  26   2.0000      -1.043526       -28.3958 
  27   2.0000      -1.023793       -27.8588 
  28   2.0000      -1.000161       -27.2158 
  29   2.0000      -0.971057       -26.4238 
  30   2.0000      -0.946620       -25.7589 
  31   2.0000      -0.938109       -25.5273 
  32   2.0000      -0.921902       -25.0862 
  33   2.0000      -0.903158       -24.5762 
  34   2.0000      -0.896307       -24.3898 
  35   2.0000      -0.858717       -23.3669 
  36   2.0000      -0.802520       -21.8377 
  37   2.0000      -0.784832       -21.3564 
  38   2.0000      -0.778283       -21.1782 
  39   2.0000      -0.759759       -20.6741 
  40   2.0000      -0.741144       -20.1676 
  41   2.0000      -0.736644       -20.0451 
  42   2.0000      -0.698476       -19.0065 
  43   2.0000      -0.662094       -18.0165 
  44   2.0000      -0.661969       -18.0131 
  45   2.0000      -0.642730       -17.4896 
  46   2.0000      -0.638585       -17.3768 
  47   2.0000      -0.609575       -16.5874 
  48   2.0000      -0.592885       -16.1332 
  49   2.0000      -0.590445       -16.0668 
  50   2.0000      -0.583615       -15.8810 
  51   2.0000      -0.564628       -15.3643 
  52   2.0000      -0.551609       -15.0101 
  53   2.0000      -0.543916       -14.8007 
  54   2.0000      -0.542918       -14.7736 
  55   2.0000      -0.530663       -14.4401 
  56   2.0000      -0.521020       -14.1777 
  57   2.0000      -0.518634       -14.1128 
  58   2.0000      -0.510383       -13.8882 
  59   2.0000      -0.500652       -13.6234 
  60   2.0000      -0.497473       -13.5369 
  61   2.0000      -0.488974       -13.3057 
  62   2.0000      -0.488358       -13.2889 
  63   2.0000      -0.484444       -13.1824 
  64   2.0000      -0.453734       -12.3467 
  65   2.0000      -0.452678       -12.3180 
  66   2.0000      -0.450226       -12.2513 
  67   2.0000      -0.434010       -11.8100 
  68   2.0000      -0.429987       -11.7005 
  69   2.0000      -0.421656       -11.4738 
  70   2.0000      -0.404690       -11.0122 
  71   2.0000      -0.398555       -10.8452 
  72   2.0000      -0.372482       -10.1358 
  73   2.0000      -0.334929        -9.1139 
  74   2.0000      -0.333054        -9.0629 
  75   2.0000      -0.316300        -8.6070 
  76   2.0000      -0.286288        -7.7903 
  77   2.0000      -0.272337        -7.4107 
  78   2.0000      -0.218902        -5.9566 
  79   0.0000      -0.017720        -0.4822 
  80   0.0000       0.028845         0.7849 
  81   0.0000       0.039178         1.0661 
  82   0.0000       0.066308         1.8043 
  83   0.0000       0.083856         2.2818 
  84   0.0000       0.090525         2.4633 
  85   0.0000       0.114518         3.1162 
  86   0.0000       0.115329         3.1383 
  87   0.0000       0.116583         3.1724 
  88   0.0000       0.126649         3.4463 
  89   0.0000       0.127792         3.4774 
*Only the first 10 virtual orbitals were printed.
-------
TIMINGS
-------

Total SCF time: 0 days 0 hours 1 min 21 sec 

Total time                  ....      81.327 sec
Sum of individual times     ....      80.918 sec  ( 99.5%)

SCF preparation             ....      14.809 sec  ( 18.2%)
Fock matrix formation       ....      57.815 sec  ( 71.1%)
  Startup                   ....       1.002 sec  (  1.7% of F)
  Coulomb+Exchange Fock     ....      48.559 sec  ( 84.0% of F)
  XC integration            ....       6.020 sec  ( 10.4% of F)
    XC Preparation          ....       0.000 sec  (  0.0% of XC)
    Basis function eval.    ....       0.466 sec  (  7.7% of XC)
    Density eval.           ....       0.494 sec  (  8.2% of XC)
    XC-Functional eval.     ....       0.036 sec  (  0.6% of XC)
    XC-Potential eval.      ....       0.455 sec  (  7.6% of XC)
Diagonalization             ....       0.000 sec  (  0.0%)
Density matrix formation    ....       1.500 sec  (  1.8%)
Total Energy calculation    ....       0.968 sec  (  1.2%)
Population analysis         ....       0.000 sec  (  0.0%)
Orbital Transformation      ....       0.723 sec  (  0.9%)
Orbital Orthonormalization  ....       0.000 sec  (  0.0%)
DIIS solution               ....       3.366 sec  (  4.1%)
SOSCF solution              ....       1.672 sec  (  2.1%)
Finished LeanSCF after  81.7 sec

Maximum memory used throughout the entire LEANSCF-calculation: 118.2 MB


           ************************************************************
           *        Program running with 104 parallel MPI-processes   *
           *              working on a common directory               *
           ************************************************************

------------------------------------------------------------------------------
                                ORCA  MP2 
------------------------------------------------------------------------------


----------
MP2 ENERGY (disk based algorithm)
----------

Dimension of the basis                      ...  828
Memory devoted to MP2                       ... 4096 MB   
Data format for buffers                     ... DOUBLE
Compression type for matrix containers      ... UNCOMPRESSED
Scaling for aa/bb pairs                     ...   5.710e-02
Scaling for ab pairs                        ...   5.979e-01
Overall scaling of the MP2 energy           ...   1.000e+00

-------------------------
SHARK HALF TRANSFORMATION (Exchange order)
-------------------------

Number of basis functions                   ...    828
Number of operators                         ...      1
   Operator  0:    0-  78 (p-index in (p*|q*))
   Operator  0:    0-  78 (q-index in (p*|q*)
Integral generator used                     ... SHARK
Contraction scheme used                     ... SEGMENTED CONTRACTION
MaxCore in resort                           ...   4096 MB

Half transformed integrals for op=   0      ... compas3x_hc_c24h14_0pent_9_tz_nori.SHARK_MNPQ0.tmp
Resorted half transformed integrals         ... compas3x_hc_c24h14_0pent_9_tz_nori.KAO_aa.tmp


ORCA finished by error termination in MP2
Calling Command: mpirun -np 104  /apps/orca/6.0.1/orca_mp2_mpi compas3x_hc_c24h14_0pent_9_tz_nori.mp2inp.tmp compas3x_hc_c24h14_0pent_9_tz_nori 
[file orca_tools/qcmsg.cpp, line 394]: 
  .... aborting the run

