
                                 *****************
                                 * O   R   C   A *
                                 *****************

                                            #,                                       
                                            ###                                      
                                            ####                                     
                                            #####                                    
                                            ######                                   
                                           ########,                                 
                                     ,,################,,,,,                         
                               ,,#################################,,                 
                          ,,##########################################,,             
                       ,#########################################, ''#####,          
                    ,#############################################,,   '####,        
                  ,##################################################,,,,####,       
                ,###########''''           ''''###############################       
              ,#####''   ,,,,##########,,,,          '''####'''          '####       
            ,##' ,,,,###########################,,,                        '##       
           ' ,,###''''                  '''############,,,                           
         ,,##''                                '''############,,,,        ,,,,,,###''
      ,#''                                            '''#######################'''  
     '                                                          ''''####''''         
             ,#######,   #######,   ,#######,      ##                                
            ,#'     '#,  ##    ##  ,#'     '#,    #''#        ,####,   ,####,        
            ##       ##  ##   ,#'  ##            #'  '#       #'       #'  '#        
            ##       ##  #######   ##           ,######,      #####,   #    #        
            '#,     ,#'  ##    ##  '#,     ,#' ,#      #,     #,   #   #,  ,#        
             '#######'   ##     ##  '#######'  #'      '#     '####' # '####'        



                #########################################################
                #                        -***-                          #
                #          Department of theory and spectroscopy        #
                #                                                       #
                #                      Frank Neese                      #
                #                                                       #
                #     Directorship, Architecture, Infrastructure        #
                #                    SHARK, DRIVERS                     #
                #        Core code/Algorithms in most modules           #
                #                                                       #
                #        Max Planck Institute fuer Kohlenforschung      #
                #                Kaiser Wilhelm Platz 1                 #
                #                 D-45470 Muelheim/Ruhr                 #
                #                      Germany                          #
                #                                                       #
                #                  All rights reserved                  #
                #                        -***-                          #
                #########################################################


                         Program Version 6.0.1  -  RELEASE   -


 With contributions from (in alphabetic order):
[Max-Planck-Institut fuer Kohlenforschung]                               
  Daniel Aravena         : Magnetic Suceptibility                        
  Michael Atanasov       : Ab Initio Ligand Field Theory (pilot matlab implementation)
  Alexander A. Auer      : GIAO ZORA, VPT2 properties, NMR spectrum      
  Ute Becker             : All parallelization in ORCA, NUMFREQ, NUMCALC 
  Giovanni Bistoni       : ED, misc. LED, open-shell LED, HFLD           
  Martin Brehm           : Molecular dynamics                            
  Dmytro Bykov           : pre 5.0 version of the SCF Hessian            
  Marcos Casanova-Páez   : Triplet and SCS-CIS(D). UHF-(DLPNO)-IP/EA/STEOM-CCSD. UHF-CVS-IP/STEOM-CCSD   
  Vijay G. Chilkuri      : MRCI spin determinant printing, contributions to CSF-ICE 
  Pauline Colinet        : FMM embedding                                 
  Dipayan Datta          : RHF DLPNO-CCSD density                        
  Achintya Kumar Dutta   : EOM-CC, STEOM-CC                              
  Nicolas Foglia         : Exact transition moments, OPA infrastructure, MCD improvements    
  Dmitry Ganyushin       : Spin-Orbit,Spin-Spin,Magnetic field MRCI      
  Miquel Garcia-Rates    : C-PCM and meta-GGA Hessian, CCSD/C-PCM, Gaussian charge scheme 
  Tiago L. C. Gouveia    : GS-ROHF, GS-ROCIS                             
  Yang Guo               : DLPNO-NEVPT2, F12-NEVPT2, CIM, IAO-localization        
  Andreas Hansen         : Spin unrestricted coupled pair/coupled cluster methods 
  Ingolf Harden          : AUTO-CI MPn and infrastructure                
  Benjamin Helmich-Paris : MC-RPA, TRAH-(SCF,CASSCF), AVAS, COSX integrals, SCF dyn. polar. 
  Lee Huntington         : MR-EOM, pCC                                   
  Robert Izsak           : Overlap fitted RIJCOSX, COSX-SCS-MP3, EOM     
  Riya Kayal             : Wick's Theorem for AUTO-CI, AUTO-CI UHF-CCSDT 
  Emily Kempfer          : AUTO-CI, RHF CISDT and CCSDT                  
  Christian Kollmar      : KDIIS, OOCD, Brueckner-CCSD(T), CCSD density, CASPT2, CASPT2-K, improved NEVPT2 
  Axel Koslowski         : Symmetry handling                             
  Simone Kossmann        : meta-GGA functionals, TD-DFT gradient, OOMP2, (MP2 Hessian; deprecated post 5.0) 
  Lucas Lang             : DCDCAS                                        
  Marvin Lechner         : AUTO-CI (C++ implementation), FIC-MRCC        
  Spencer Leger          : CASSCF response                               
  Dagmar Lenk            : GEPOL surface, SMD, ORCA-2-JSON               
  Dimitrios Liakos       : Extrapolation schemes; Compound Job, initial MDCI parallelization 
  Dimitrios Manganas     : Further ROCIS development; embedding schemes. LFT, Crystal Embedding 
  Dimitrios Pantazis     : SARC Basis sets                               
  Anastasios Papadopoulos: AUTO-CI, single reference methods and gradients 
  Taras Petrenko         : pre 6.0 DFT Hessian and TD-DFT gradient, (ASA, deprecated), ECA, 1-Electron XAS/XES, NRVS 
  Peter Pinski           : DLPNO-MP2, DLPNO-MP2 Gradient                 
  Christoph Reimann      : Effective Core Potentials                     
  Marius Retegan         : Local ZFS, SOC                                
  Christoph Riplinger    : Optimizer, TS searches, QM/MM, DLPNO-CCSD(T), (RO)-DLPNO pert. Triples 
  Michael Roemelt        : Original ROCIS implementation                 
  Masaaki Saitow         : Open-shell DLPNO-CCSD energy and density      
  Barbara Sandhoefer     : DKH picture change effects                    
  Kantharuban Sivalingam : CASSCF convergence/infrastructure, NEVPT2 and variants, FIC-MRCI 
  Bernardo de Souza      : ESD, SOC TD-DFT                               
  Georgi L. Stoychev     : AutoAux, RI-MP2 NMR, DLPNO-MP2 response, X2C  
  Van Anh Tran           : RI-MP2 g-tensors                              
  Willem Van den Heuvel  : Paramagnetic NMR                              
  Zikuan Wang            : NOTCH, Electric field optimization            
  Frank Wennmohs         : Technical directorship and infrastructure     
  Hang Xu                : AUTO-CI-Response properties                   
                                                                         
[FACCTs GmbH]                                                            
  Markus Bursch, Miquel Garcia-Rates, Christoph Riplinger, Bernardo de Souza, Georgi L. Stoychev 
                                                                 
  APM, Basis sets (HGBS, AHGBS, def-TZVP (Ac-Lr), def2-XVPD (La-Lu)), CI-OPT, improved COSX, DLPNO-Multilevel,           
  DOCKER, DRACO, updates on ESD, GOAT, IRC, LR-CPCM, MBIS, meta-GGA TD-DFT gradient, ML-optimized integration grids, 
  MM, NACMEs, nearIR, NEB, NEB-TS, NL-DFT gradient (VV10), 2- and 3-layer-ONIOM, interface openCOSMO-RS, QMMM,   
  Crystal-QMMM, SF, symmetry and pop. for TD-DFT, r2SCAN hybrids, SOLVATOR                                   
                                                                         
[Other institutions]                                                     
  V. Asgeirsson          : NEB                                           
  Christoph Bannwarth    : sTDA-DFT, sTD-DFT, PBEh-3c, B97-3c, D3        
  Sebastian Ehlert       : rSCAN, r2SCAN, r2SCAN-3c, D4, dhf basis sets  
  Marvin Friede          : D4 for Fr, Ra, Ac-Lr                          
  Lars Goerigk           : TD-DFT with DH, B97 family of functionals     
  Stefan Grimme          : VdW corrections, initial TS optimization, DFT functionals, gCP, sTDA/sTD-DF 
  Waldemar Hujo          : DFT-NL                                        
  H. Jonsson             : NEB                                           
  Holger Kruse           : gCP                                           
  Marcel Mueller         : wB97X-3c, vDZP basis set                      
  Hagen Neugebauer       : wr2SCAN                                       
  Tobias Risthaus        : range-separated hybrid DFT                    
  Lukas Wittmann         : regularized MP2, r2SCAN double-hybrids, wr2SCAN        
                                                                         
We gratefully acknowledge several colleagues who have allowed us to      
interface, adapt or use parts of their codes:                            
  Ed Valeev, F. Pavosevic, A. Kumar             : LibInt (2-el integral package), F12 methods 
  Garnet Chan, S. Sharma, J. Yang, R. Olivares  : DMRG                   
  Ulf Ekstrom                                   : XCFun DFT Library      
  Mihaly Kallay                                 : mrcc  (arbitrary order and MRCC methods)
  Frank Weinhold                                : gennbo (NPA and NBO analysis)           
  Simon Mueller                                 : openCOSMO-RS                            
  Christopher J. Cramer and Donald G. Truhlar   : smd solvation model                     
  S Lehtola, MJT Oliveira, MAL Marques          : LibXC Library                           
  Liviu Ungur et al                             : ANISO software                          


 Your calculation uses the libint2 library for the computation of 2-el integrals
 For citations please refer to: http://libint.valeyev.net

 Your ORCA version has been built with support for libXC version: 6.2.2
 For citations please refer to: https://libxc.gitlab.io

 This ORCA versions uses:
   CBLAS   interface :  Fast vector & matrix operations
   LAPACKE interface :  Fast linear algebra routines
   SCALAPACK package :  Parallel linear algebra routines
   Shared memory     :  Shared parallel matrices
   BLAS/LAPACK       :  OpenBLAS 0.3.27  USE64BITINT DYNAMIC_ARCH NO_AFFINITY SapphireRapids SINGLE_THREADED
        Core in use  :  SapphireRapids
   Copyright (c) 2011-2014, The OpenBLAS Project




***************************************
The coordinates will be read from file: /scratch/kx58/rs2200/dhdft/inputs/compas3D-xyzs/hc_c24h14_0pent_3.xyz
***************************************


Your calculation utilizes the atom-pairwise dispersion correction
based on EEQ partial charges (D4)


================================================================================

----- Orbital basis set information -----
Your calculation utilizes the basis: def2-QZVPP
   F. Weigend and R. Ahlrichs, Phys. Chem. Chem. Phys. 7, 3297 (2005).

================================================================================
                                        WARNINGS
                       Please study these warnings very carefully!
================================================================================


WARNING: No MP2 level density has been requested!
         To calculate MP2 level properties use
         %mp2 Density relaxed end
         or
         %mp2 Density unrelaxed end
         Otherwise for double-hybrid DFT only the energy is correct!

================================================================================
                                       INPUT FILE
================================================================================
NAME = compas3D_hc_c24h14_0pent_3_qz_nori.inp
|  1> ! RKS revDSD-PBEP86-D4/2021 defgrid3  NORI NOPOP NoFrozencore NoUseSym
|  2> 
|  3> %basis
|  4> Basis "def2-QZVPP"
|  5> 
|  6> 
|  7> end
|  8> 
|  9> %method
| 10> ScalHFX 0.69
| 11> ScalDFX 0.31
| 12> ScalDFC 0.4038
| 13> ScalLDAC 0.4038
| 14> 
| 15> D4S6 0.4612
| 16> D4S8 0.0
| 17> D4A1 0.44
| 18> D4A2 3.60
| 19> end
| 20> 
| 21> %mp2
| 22> PS 0.5979
| 23> PT 0.0571
| 24> end
| 25> 
| 26> %pal
| 27> nprocs 104
| 28> end
| 29> 
| 30> *XYZFILE 0 1 /scratch/kx58/rs2200/dhdft/inputs/compas3D-xyzs/hc_c24h14_0pent_3.xyz
| 31> 
| 32>                          ****END OF INPUT****
================================================================================

                       ****************************
                       * Single Point Calculation *
                       ****************************

---------------------------------
CARTESIAN COORDINATES (ANGSTROEM)
---------------------------------
  C      1.729774   -0.731742   -0.472710
  C      0.832897   -1.824981   -0.357274
  C     -0.571272   -1.586388   -0.199743
  C     -1.067880   -0.258659   -0.070366
  C     -0.116817    0.852811    0.040811
  C      1.218226    0.631675   -0.315120
  C      3.085814   -1.004578   -0.677289
  C      3.559146   -2.311503   -0.759334
  C      2.686368   -3.381083   -0.652724
  C      1.317334   -3.157542   -0.461366
  C      0.383155   -4.248889   -0.399009
  C     -0.946542   -4.022782   -0.301703
  C     -1.472317   -2.685848   -0.229774
  C     -2.852709   -2.450526   -0.219916
  C     -3.332966   -1.153022   -0.227209
  C     -2.453897   -0.074777   -0.157258
  C     -0.502636    2.176847    0.491749
  C      0.376448    3.272020    0.263989
  C      1.662013    3.024208   -0.292304
  C      2.083975    1.750522   -0.507628
  C     -1.674645    2.443973    1.250192
  C     -2.001744    3.717517    1.652921
  C     -1.177458    4.809671    1.318946
  C     -0.001590    4.580693    0.649924
  H      3.803727   -0.190466   -0.757144
  H      4.625942   -2.488532   -0.909417
  H      3.053572   -4.406997   -0.726363
  H      0.772879   -5.267352   -0.459954
  H     -1.653254   -4.855479   -0.287155
  H     -3.538975   -3.299719   -0.247924
  H     -4.406683   -0.965753   -0.290690
  H     -2.863744    0.930228   -0.206502
  H      2.324871    3.869385   -0.489358
  H      3.096922    1.586801   -0.869943
  H     -2.306059    1.619277    1.570038
  H     -2.900191    3.878021    2.252365
  H     -1.454218    5.820751    1.623844
  H      0.681533    5.404215    0.429396

----------------------------
CARTESIAN COORDINATES (A.U.)
----------------------------
  NO LB      ZA    FRAG     MASS         X           Y           Z
   0 C     6.0000    0    12.011    3.268800   -1.382791   -0.893292
   1 C     6.0000    0    12.011    1.573948   -3.448715   -0.675150
   2 C     6.0000    0    12.011   -1.079547   -2.997839   -0.377459
   3 C     6.0000    0    12.011   -2.018000   -0.488795   -0.132973
   4 C     6.0000    0    12.011   -0.220751    1.611579    0.077121
   5 C     6.0000    0    12.011    2.302113    1.193693   -0.595491
   6 C     6.0000    0    12.011    5.831343   -1.898377   -1.279891
   7 C     6.0000    0    12.011    6.725812   -4.368108   -1.434933
   8 C     6.0000    0    12.011    5.076499   -6.389320   -1.233469
   9 C     6.0000    0    12.011    2.489400   -5.966889   -0.871855
  10 C     6.0000    0    12.011    0.724058   -8.029236   -0.754017
  11 C     6.0000    0    12.011   -1.788706   -7.601955   -0.570135
  12 C     6.0000    0    12.011   -2.782275   -5.075517   -0.434211
  13 C     6.0000    0    12.011   -5.390839   -4.630823   -0.415580
  14 C     6.0000    0    12.011   -6.298394   -2.178896   -0.429362
  15 C     6.0000    0    12.011   -4.637194   -0.141309   -0.297174
  16 C     6.0000    0    12.011   -0.949844    4.113645    0.929271
  17 C     6.0000    0    12.011    0.711384    6.183222    0.498866
  18 C     6.0000    0    12.011    3.140749    5.714926   -0.552375
  19 C     6.0000    0    12.011    3.938142    3.308008   -0.959278
  20 C     6.0000    0    12.011   -3.164620    4.618440    2.362521
  21 C     6.0000    0    12.011   -3.782747    7.025088    3.123569
  22 C     6.0000    0    12.011   -2.225073    9.088961    2.492448
  23 C     6.0000    0    12.011   -0.003004    8.656256    1.228179
  24 H     1.0000    0     1.008    7.188002   -0.359928   -1.430795
  25 H     1.0000    0     1.008    8.741763   -4.702645   -1.718549
  26 H     1.0000    0     1.008    5.770415   -8.328018   -1.372627
  27 H     1.0000    0     1.008    1.460530   -9.953853   -0.869187
  28 H     1.0000    0     1.008   -3.124197   -9.175525   -0.542645
  29 H     1.0000    0     1.008   -6.687694   -6.235565   -0.468508
  30 H     1.0000    0     1.008   -8.327424   -1.825009   -0.549325
  31 H     1.0000    0     1.008   -5.411692    1.757876   -0.390233
  32 H     1.0000    0     1.008    4.393370    7.312079   -0.924752
  33 H     1.0000    0     1.008    5.852334    2.998620   -1.643954
  34 H     1.0000    0     1.008   -4.357821    3.059991    2.966942
  35 H     1.0000    0     1.008   -5.480567    7.328397    4.256353
  36 H     1.0000    0     1.008   -2.748073   10.999626    3.068620
  37 H     1.0000    0     1.008    1.287911   10.212486    0.811442

--------------------------------
INTERNAL COORDINATES (ANGSTROEM)
--------------------------------
 C      0   0   0     0.000000000000     0.00000000     0.00000000
 C      1   0   0     1.418762383597     0.00000000     0.00000000
 C      2   1   0     1.432980526427   120.00595731     0.00000000
 C      3   2   1     1.423454445995   120.47462177   355.89247316
 C      4   3   2     1.467053586082   119.16918857   353.65958535
 C      5   4   3     1.399259366519   118.65404502    15.85187307
 C      1   2   3     1.398261656208   118.33428570   182.44977647
 C      7   1   2     1.392418435188   121.42864574   359.60555748
 C      8   7   1     1.384596935744   120.41369858     0.67069093
 C      9   8   7     1.400300932695   120.23038415     0.00000000
 C     10   9   8     1.437920495657   121.32768852   177.57652345
 C     11  10   9     1.352290173944   120.99990930   184.36213279
 C      3   2   1     1.421828419172   119.33455577   173.27909403
 C     13   3   2     1.400341795267   119.64341949   186.77914612
 C     14  13   3     1.383552258256   119.98224006     2.20367652
 C     15  14  13     1.392934977976   120.43826718   355.84306478
 C      5   4   3     1.450956151528   122.85526572   195.22806649
 C     17   5   4     1.422697041488   119.23500934   195.41130764
 C     18  17   5     1.422514683183   119.13807262   354.44964948
 C     19  18  17     1.358930789553   120.38845629   354.99561397
 C     17   5   4     1.421336710122   123.82114793    20.49820708
 C     21  17   5     1.375171520461   121.76649844   180.17265027
 C     22  21  17     1.408469905391   120.62839121     0.18073579
 C     23  22  21     1.372110748697   119.19260147   356.35236169
 H      7   1   2     1.088372281549   120.29700003   180.81405484
 H      8   7   1     1.091749220926   119.50250874   180.62795550
 H      9   8   7     1.092136654650   120.56484858   179.40640649
 H     11  10   9     1.092184584483   118.26194881     2.70742983
 H     12  11  10     1.092262377004   120.64359319   178.01768222
 H     14  13   3     1.092187600271   119.24536564   179.71205702
 H     15  14  13     1.091772159731   120.16848433   175.67956666
 H     16  15  14     1.086478199118   118.40459270   177.52520334
 H     19  18  17     1.092032910310   118.96639850   178.47461072
 H     20  19  18     1.088180825097   118.86948185   184.15677061
 H     21  17   5     1.086788534255   119.57109250     3.53616087
 H     22  21  17     1.091925952008   119.51259761   181.27910445
 H     23  22  21     1.091714745238   120.23586290   178.70082512
 H     24  23  22     1.092463572141   120.56397842   183.46117780

---------------------------
INTERNAL COORDINATES (A.U.)
---------------------------
 C      0   0   0     0.000000000000     0.00000000     0.00000000
 C      1   0   0     2.681072354109     0.00000000     0.00000000
 C      2   1   0     2.707940750189   120.00595731     0.00000000
 C      3   2   1     2.689939067043   120.47462177   355.89247316
 C      4   3   2     2.772329501482   119.16918857   353.65958535
 C      5   4   3     2.644216993045   118.65404502    15.85187307
 C      1   2   3     2.642331593796   118.33428570   182.44977647
 C      7   1   2     2.631289506329   121.42864574   359.60555748
 C      8   7   1     2.616509014422   120.41369858     0.67069093
 C      9   8   7     2.646185267869   120.23038415     0.00000000
 C     10   9   8     2.717275939145   121.32768852   177.57652345
 C     11  10   9     2.555458082346   120.99990930   184.36213279
 C      3   2   1     2.686866321661   119.33455577   173.27909403
 C     13   3   2     2.646262486939   119.64341949   186.77914612
 C     14  13   3     2.614534860072   119.98224006     2.20367652
 C     15  14  13     2.632265630735   120.43826718   355.84306478
 C      5   4   3     2.741909758716   122.85526572   195.22806649
 C     17   5   4     2.688507779952   119.23500934   195.41130764
 C     18  17   5     2.688163172698   119.13807262   354.44964948
 C     19  18  17     2.568007027208   120.38845629   354.99561397
 C     17   5   4     2.685937126219   123.82114793    20.49820708
 C     21  17   5     2.598697560839   121.76649844   180.17265027
 C     22  21  17     2.661622389059   120.62839121     0.18073579
 C     23  22  21     2.592913540447   119.19260147   356.35236169
 H      7   1   2     2.056725543878   120.29700003   180.81405484
 H      8   7   1     2.063107034472   119.50250874   180.62795550
 H      9   8   7     2.063839178105   120.56484858   179.40640649
 H     11  10   9     2.063929752364   118.26194881     2.70742983
 H     12  11  10     2.064076758923   120.64359319   178.01768222
 H     14  13   3     2.063935451376   119.24536564   179.71205702
 H     15  14  13     2.063150382531   120.16848433   175.67956666
 H     16  15  14     2.053146246810   118.40459270   177.52520334
 H     19  18  17     2.063643129715   118.96639850   178.47461072
 H     20  19  18     2.056363743618   118.86948185   184.15677061
 H     21  17   5     2.053732695229   119.57109250     3.53616087
 H     22  21  17     2.063441007816   119.51259761   181.27910445
 H     23  22  21     2.063041884864   120.23586290   178.70082512
 H     24  23  22     2.064456962632   120.56397842   183.46117780

---------------------
BASIS SET INFORMATION
---------------------
There are 2 groups of distinct atoms

 Group   1 Type C   : 15s8p3d2f1g contracted to 7s4p3d2f1g pattern {8211111/5111/111/11/1}
 Group   2 Type H   : 7s3p2d1f contracted to 4s3p2d1f pattern {4111/111/11/1}

Atom   0C    basis set group =>   1
Atom   1C    basis set group =>   1
Atom   2C    basis set group =>   1
Atom   3C    basis set group =>   1
Atom   4C    basis set group =>   1
Atom   5C    basis set group =>   1
Atom   6C    basis set group =>   1
Atom   7C    basis set group =>   1
Atom   8C    basis set group =>   1
Atom   9C    basis set group =>   1
Atom  10C    basis set group =>   1
Atom  11C    basis set group =>   1
Atom  12C    basis set group =>   1
Atom  13C    basis set group =>   1
Atom  14C    basis set group =>   1
Atom  15C    basis set group =>   1
Atom  16C    basis set group =>   1
Atom  17C    basis set group =>   1
Atom  18C    basis set group =>   1
Atom  19C    basis set group =>   1
Atom  20C    basis set group =>   1
Atom  21C    basis set group =>   1
Atom  22C    basis set group =>   1
Atom  23C    basis set group =>   1
Atom  24H    basis set group =>   2
Atom  25H    basis set group =>   2
Atom  26H    basis set group =>   2
Atom  27H    basis set group =>   2
Atom  28H    basis set group =>   2
Atom  29H    basis set group =>   2
Atom  30H    basis set group =>   2
Atom  31H    basis set group =>   2
Atom  32H    basis set group =>   2
Atom  33H    basis set group =>   2
Atom  34H    basis set group =>   2
Atom  35H    basis set group =>   2
Atom  36H    basis set group =>   2
Atom  37H    basis set group =>   2


           ************************************************************
           *        Program running with 104 parallel MPI-processes   *
           *              working on a common directory               *
           ************************************************************
------------------------------------------------------------------------------
                             ORCA STARTUP CALCULATIONS
------------------------------------------------------------------------------
------------------------------------------------------------------------------
                   ___                                                        
                  /   \      - P O W E R E D   B Y -                         
                 /     \                                                     
                 |  |  |   _    _      __       _____    __    __             
                 |  |  |  | |  | |    /  \     |  _  \  |  |  /  |          
                  \  \/   | |  | |   /    \    | | | |  |  | /  /          
                 / \  \   | |__| |  /  /\  \   | |_| |  |  |/  /          
                |  |  |   |  __  | /  /__\  \  |    /   |      \           
                |  |  |   | |  | | |   __   |  |    \   |  |\   \          
                \     /   | |  | | |  |  |  |  | |\  \  |  | \   \       
                 \___/    |_|  |_| |__|  |__|  |_| \__\ |__|  \__/        
                                                                              
                      - O R C A' S   B I G   F R I E N D -                    
                                      &                                       
                       - I N T E G R A L  F E E D E R -                       
                                                                              
 v1 FN, 2020, v2 2021, v3 2022-2024                                           
------------------------------------------------------------------------------


----------------------
SHARK INTEGRAL PACKAGE
----------------------

Number of atoms                             ...     38
Number of basis functions                   ...   1788
Number of shells                            ...    548
Maximum angular momentum                    ...      4
Integral batch strategy                     ... SHARK/LIBINT Hybrid
RI-J (if used) integral strategy            ... SPLIT-RIJ (Revised 2003 algorithm where possible)
Printlevel                                  ...      1
Contraction scheme used                     ... SEGMENTED contraction
Prescreening option                         ... SCHWARTZ
   Thresh                                   ... 1.000e-10
   Tcut                                     ... 1.000e-11
   Tpresel                                  ... 1.000e-11 
Coulomb Range Separation                    ... NOT USED
Exchange Range Separation                   ... NOT USED
Multipole approximations                    ... NOT USED
Finite Nucleus Model                        ... NOT USED
CABS basis                                  ... NOT available
Auxiliary Coulomb fitting basis             ... NOT available
Auxiliary J/K fitting basis                 ... NOT available
Auxiliary Correlation fitting basis         ... NOT available
Auxiliary 'external' fitting basis          ... NOT available

Checking pre-screening integrals            ... done (  0.0 sec) Dimension = 548
Check shell pair data                       ... done (  0.0 sec)
Shell pair information
Shell pair cut-off parameter TPreSel        ...   1.0e-11
Total number of shell pairs                 ...    150426
Shell pairs after pre-screening             ...     91550
Total number of primitive shell pairs       ...    386901
Primitive shell pairs kept                  ...    162417
          la=0 lb=0:  13965 shell pairs
          la=1 lb=0:  20521 shell pairs
          la=1 lb=1:   7122 shell pairs
          la=2 lb=0:  12584 shell pairs
          la=2 lb=1:   9304 shell pairs
          la=2 lb=2:   2988 shell pairs
          la=3 lb=0:   7514 shell pairs
          la=3 lb=1:   5547 shell pairs
          la=3 lb=2:   3407 shell pairs
          la=3 lb=3:   1041 shell pairs
          la=4 lb=0:   2984 shell pairs
          la=4 lb=1:   2206 shell pairs
          la=4 lb=2:   1377 shell pairs
          la=4 lb=3:    811 shell pairs
          la=4 lb=4:    179 shell pairs

Calculating one electron integrals          ... done (  0.4 sec)
Calculating Nuclear repulsion               ... done (  0.0 sec) ENN=   1816.512208248656 Eh

Diagonalization of the overlap matrix:
Smallest eigenvalue                        ... 4.765e-07
Time for diagonalization                   ...    0.641 sec
Threshold for overlap eigenvalues          ... 1.000e-07
Number of eigenvalues below threshold      ... 0

IMPORTANT:
Smallest eigenvalue of S below the DiffSThresh (1.000e-06) while
Thresh>1e-12 and/or TCut>1e-13! In order to avoid SCF convergence issues,
Thresh will be set to at least 1e-12 and TCut to at least 1e-13.
This can be turned off by adding %SCF DiffSThresh -1 END to the input.

Time for construction of square roots      ...    0.357 sec
Total time needed                          ...    1.053 sec

-------------------
DFT GRID GENERATION
-------------------

General Integration Accuracy     IntAcc      ... 4.959
Radial Grid Type                 RadialGrid  ... OptM3 with GC (2021)
Angular Grid (max. ang.)         AngularGrid ... 6 (Lebedev-590)
Angular grid pruning method      GridPruning ... 4 (adaptive)
Weight generation scheme         WeightScheme... mBecke (2022)
Basis function cutoff            BFCut       ... 1.0000e-10
Integration weight cutoff        WCut        ... 1.0000e-14
Partially contracted basis set               ... off
Rotationally invariant grid construction     ... off
Angular grids for H and He will be reduced by one unit
Diffuse basis detected: some atoms will have their outermost
                        angular grid increased by 1.

Total number of grid points                  ...   468009
Total number of batches                      ...     7332
Average number of points per batch           ...       63
Average number of grid points per atom       ...    12316
Initializing property integral containers    ... done (  0.0 sec)

SHARK setup successfully completed in   7.6 seconds

Maximum memory used throughout the entire STARTUP-calculation: 190.9 MB


           ************************************************************
           *        Program running with 104 parallel MPI-processes   *
           *              working on a common directory               *
           ************************************************************
-------------------------------------------------------------------------------
                                 ORCA GUESS
                   Start orbitals & Density for SCF / CASSCF
-------------------------------------------------------------------------------

------------
SCF SETTINGS
------------
Hamiltonian:
 Density Functional     Method          .... DFT(GTOs)
 Exchange Functional    Exchange        .... PBE
   PBE kappa parameter   XKappa         ....  0.804000
   PBE mue parameter    XMuePBE         ....  0.219520
 Correlation Functional Correlation     .... P86
 LDA part of GGA corr.  LDAOpt          .... VWN-5
 Gradients option       PostSCFGGA      .... off
 Hybrid DFT is turned on
   Fraction HF Exchange ScalHFX         ....  0.690000
   Scaling of DF-GGA-X  ScalDFX         ....  0.310000
   Scaling of DF-GGA-C  ScalDFC         ....  0.403800
   Scaling of DF-LDA-C  ScalLDAC        ....  0.403800
   Perturbative correction              ....  1.000000


General Settings:
 Integral files         IntName         .... compas3D_hc_c24h14_0pent_3_qz_nori
 Hartree-Fock type      HFTyp           .... RHF
 Total Charge           Charge          ....    0
 Multiplicity           Mult            ....    1
 Number of Electrons    NEL             ....  158
 Basis Dimension        Dim             .... 1788
 Nuclear Repulsion      ENuc            ....   1816.5122082487 Eh

Convergence Acceleration:
 AO-DIIS                CNVDIIS         .... on
   Start iteration      DIISMaxIt       ....    12
   Startup error        DIISStart       ....  0.200000
   # of expansion vecs  DIISMaxEq       ....     5
   Bias factor          DIISBfac        ....   1.050
   Max. coefficient     DIISMaxC        ....  10.000
 MO-DIIS                CNVKDIIS        .... off
 Trust-Rad. Augm. Hess. CNVTRAH         .... auto
   Auto Start mean grad. ratio tolernc. ....  1.125000
   Auto Start start iteration           ....    50
   Auto Start num. interpolation iter.  ....    10
   Max. Number of Micro iterations      ....    24
   Max. Number of Macro iterations      .... Maxiter - #DIIS iter
   Number of Davidson start vectors     ....     2
   Converg. threshold    (grad. norm)   ....   5.000e-05
   Grad. Scal. Fac. for Micro threshold ....   0.100
   Minimum threshold for Micro iter.    ....   1.000e-02
   NR start threshold (gradient norm)   ....   1.000e-04
   Initial trust radius                 ....   0.400
   Minimum AH scaling param. (alpha)    ....   1.000
   Maximum AH scaling param. (alpha)    .... 1000.000
   Quad. conv. algorithm                .... NR
   White noise on init. David. guess    .... on
   Maximum white noise                  ....   0.010
   Pseudo random numbers                .... off
   Inactive MOs                         .... canonical
   Orbital update algorithm             .... Taylor
   Preconditioner                       .... Diag
   Full preconditioner red. dimension   ....   250
 SOSCF                  CNVSOSCF        .... on
   Start iteration      SOSCFMaxIt      ....   150
   Startup grad/error   SOSCFStart      ....  0.003300
   Hessian update       SOSCFHessUp     .... L-BFGS
 Level Shifting         CNVShift        .... on
   Level shift para.    LevelShift      ....    0.2500
   Turn off err/grad.   ShiftErr        ....    0.0010
 Zerner damping         CNVZerner       .... off
 Static damping         CNVDamp         .... on
   Fraction old density DampFac         ....    0.7000
   Max. Damping (<1)    DampMax         ....    0.9800
   Min. Damping (>=0)   DampMin         ....    0.0000
   Turn off err/grad.   DampErr         ....    0.1000

SCF Procedure:
 Maximum # iterations   MaxIter         ....   125
 SCF integral mode      SCFMode         .... Direct
   Integral package                     .... SHARK and LIBINT hybrid scheme
 Reset frequency        DirectResetFreq ....    20
 Integral Threshold     Thresh          ....  1.000e-12 Eh
 Primitive CutOff       TCut            ....  1.000e-13 Eh

Convergence Tolerance:
 Convergence Check Mode ConvCheckMode   .... Total+1el-Energy
 Convergence forced     ConvForced      .... 0
 Energy Change          TolE            ....  1.000e-06 Eh
 1-El. energy change                    ....  1.000e-03 Eh
 Orbital Gradient       TolG            ....  5.000e-05
 Orbital Rotation angle TolX            ....  5.000e-05
 DIIS Error             TolErr          ....  1.000e-06

------------------------------
INITIAL GUESS: MODEL POTENTIAL
------------------------------
Loading Hartree-Fock densities                     ... done
Calculating cut-offs                               ... done
Initializing the effective Hamiltonian             ... done
Setting up the integral package (SHARK)            ... done
Starting the Coulomb interaction                   ... done (   0.3 sec)
Making the grid                                    ... done (   0.3 sec)
Mapping shells                                     ... done
Starting the XC term evaluation                    ... done (   0.1 sec)
  promolecular density results
     # of electrons  =    157.991414773
     EX              =   -126.955522564
     EC              =      0.206451609
     EX+EC           =   -126.749070955
Transforming the Hamiltonian                       ... done (   0.3 sec)
Diagonalizing the Hamiltonian                      ... done (   0.4 sec)
Back transforming the eigenvectors                 ... done (   0.2 sec)
Now organizing SCF variables                       ... done
                      ------------------
                      INITIAL GUESS DONE (   1.9 sec)
                      ------------------
             **** ENERGY FILE WAS UPDATED (compas3D_hc_c24h14_0pent_3_qz_nori.en.tmp) ****
Finished Guess after  17.6 sec
Maximum memory used throughout the entire GUESS-calculation: 197.9 MB


           ************************************************************
           *        Program running with 104 parallel MPI-processes   *
           *              working on a common directory               *
           ************************************************************

-------------------------------------------------------------------------------------------
                                      ORCA LEAN-SCF
                              memory conserving SCF solver
-------------------------------------------------------------------------------------------

----------------------------------------D-I-I-S--------------------------------------------
Iteration    Energy (Eh)           Delta-E    RMSDP     MaxDP     DIISErr   Damp  Time(sec)
-------------------------------------------------------------------------------------------
               ***  Starting incremental Fock matrix formation  ***
    1    -919.0563464743670465     0.00e+00  5.58e-04  1.26e-01  1.49e-01  0.700  65.0
    2    -919.2359844625541427    -1.80e-01  7.39e-04  1.83e-01  9.28e-02  0.700  58.2
                               ***Turning on AO-DIIS***
    3    -919.3425928818016928    -1.07e-01  3.60e-04  8.27e-02  5.65e-02  0.700  56.4
    4    -919.4092822679774599    -6.67e-02  5.31e-04  8.43e-02  3.90e-02  0.000  54.3
    5    -919.5553252528363828    -1.46e-01  6.88e-05  1.15e-02  3.58e-03  0.000  58.2
                              *** Initializing SOSCF ***
---------------------------------------S-O-S-C-F--------------------------------------
Iteration    Energy (Eh)           Delta-E    RMSDP     MaxDP     MaxGrad    Time(sec)
--------------------------------------------------------------------------------------
    6    -919.5556126267454147    -2.87e-04  3.01e-05  3.40e-03  1.25e-03    49.3
               *** Restarting incremental Fock matrix formation ***
    7    -919.5556774140025027    -6.48e-05  2.67e-05  5.12e-03  6.11e-04    63.2
    8    -919.5557030822049001    -2.57e-05  2.88e-05  5.14e-03  4.01e-04    42.3
    9    -919.5557111221585274    -8.04e-06  1.23e-05  2.00e-03  2.14e-04    41.3
   10    -919.5557131210373427    -2.00e-06  1.11e-05  2.92e-03  2.55e-05    38.2
   11    -919.5557133310678637    -2.10e-07  1.99e-06  3.15e-04  1.67e-05    33.6
                 **** Energy Check signals convergence ****

               *****************************************************
               *                     SUCCESS                       *
               *           SCF CONVERGED AFTER  11 CYCLES          *
               *****************************************************

             **** ENERGY FILE WAS UPDATED (compas3D_hc_c24h14_0pent_3_qz_nori.en.tmp) ****

----------------
TOTAL SCF ENERGY
----------------

Total Energy       :       -919.55571333106786 Eh          -25022.38307 eV

Components:
Nuclear Repulsion  :       1816.51220824865618 Eh           49429.81015 eV
Electronic Energy  :      -2736.06792157972404 Eh          -74452.19322 eV
One Electron Energy:      -4853.62969451589106 Eh         -132073.97850 eV
Two Electron Energy:       2117.56177293616702 Eh           57621.78528 eV

Virial components:
Potential Energy   :      -1836.35005921533889 Eh          -49969.62552 eV
Kinetic Energy     :        916.79434588427102 Eh           24947.24244 eV
Virial Ratio       :          2.00301198132296

DFT components:
N(Alpha)           :       79.000001670280 electrons
N(Beta)            :       79.000001670280 electrons
N(Total)           :      158.000003340560 electrons
E(X)               :      -40.012035952682 Eh       
E(C)               :       -2.351474439225 Eh       
E(XC)              :      -42.363510391908 Eh       

---------------
SCF CONVERGENCE
---------------

  Last Energy change         ...    2.1003e-07  Tolerance :   1.0000e-06
  Last MAX-Density change    ...    3.1504e-04  Tolerance :   1.0000e-05
  Last RMS-Density change    ...    1.9877e-06  Tolerance :   1.0000e-06
  Last DIIS Error            ...    1.2463e-03  Tolerance :   1.0000e-06
  Last Orbital Gradient      ...    1.6718e-05  Tolerance :   5.0000e-05
  Last Orbital Rotation      ...    5.3402e-05  Tolerance :   5.0000e-05


----------------
ORBITAL ENERGIES
----------------

  NO   OCC          E(Eh)            E(eV) 
   0   2.0000     -10.843707      -295.0723 
   1   2.0000     -10.840462      -294.9840 
   2   2.0000     -10.840272      -294.9788 
   3   2.0000     -10.839806      -294.9661 
   4   2.0000     -10.838907      -294.9417 
   5   2.0000     -10.836211      -294.8683 
   6   2.0000     -10.835304      -294.8436 
   7   2.0000     -10.834547      -294.8230 
   8   2.0000     -10.834387      -294.8187 
   9   2.0000     -10.833930      -294.8062 
  10   2.0000     -10.827199      -294.6231 
  11   2.0000     -10.826369      -294.6005 
  12   2.0000     -10.826259      -294.5975 
  13   2.0000     -10.825855      -294.5865 
  14   2.0000     -10.825836      -294.5860 
  15   2.0000     -10.825395      -294.5740 
  16   2.0000     -10.825124      -294.5666 
  17   2.0000     -10.824922      -294.5611 
  18   2.0000     -10.824889      -294.5602 
  19   2.0000     -10.824582      -294.5519 
  20   2.0000     -10.824402      -294.5470 
  21   2.0000     -10.824245      -294.5427 
  22   2.0000     -10.823404      -294.5198 
  23   2.0000     -10.823158      -294.5131 
  24   2.0000      -1.093698       -29.7610 
  25   2.0000      -1.065848       -29.0032 
  26   2.0000      -1.041918       -28.3520 
  27   2.0000      -1.021354       -27.7925 
  28   2.0000      -0.989282       -26.9197 
  29   2.0000      -0.970855       -26.4183 
  30   2.0000      -0.952515       -25.9192 
  31   2.0000      -0.933401       -25.3991 
  32   2.0000      -0.910466       -24.7750 
  33   2.0000      -0.896483       -24.3945 
  34   2.0000      -0.888131       -24.1673 
  35   2.0000      -0.874439       -23.7947 
  36   2.0000      -0.784580       -21.3495 
  37   2.0000      -0.779694       -21.2165 
  38   2.0000      -0.774705       -21.0808 
  39   2.0000      -0.770281       -20.9604 
  40   2.0000      -0.747210       -20.3326 
  41   2.0000      -0.724842       -19.7239 
  42   2.0000      -0.692920       -18.8553 
  43   2.0000      -0.670837       -18.2544 
  44   2.0000      -0.651470       -17.7274 
  45   2.0000      -0.633504       -17.2385 
  46   2.0000      -0.626809       -17.0563 
  47   2.0000      -0.619969       -16.8702 
  48   2.0000      -0.597211       -16.2509 
  49   2.0000      -0.585853       -15.9419 
  50   2.0000      -0.579868       -15.7790 
  51   2.0000      -0.555871       -15.1260 
  52   2.0000      -0.550913       -14.9911 
  53   2.0000      -0.544837       -14.8258 
  54   2.0000      -0.538269       -14.6470 
  55   2.0000      -0.528168       -14.3722 
  56   2.0000      -0.522021       -14.2049 
  57   2.0000      -0.516134       -14.0447 
  58   2.0000      -0.512519       -13.9464 
  59   2.0000      -0.508929       -13.8487 
  60   2.0000      -0.491910       -13.3856 
  61   2.0000      -0.485426       -13.2091 
  62   2.0000      -0.479279       -13.0419 
  63   2.0000      -0.468660       -12.7529 
  64   2.0000      -0.461149       -12.5485 
  65   2.0000      -0.454064       -12.3557 
  66   2.0000      -0.446005       -12.1364 
  67   2.0000      -0.436423       -11.8757 
  68   2.0000      -0.430785       -11.7223 
  69   2.0000      -0.414778       -11.2867 
  70   2.0000      -0.407061       -11.0767 
  71   2.0000      -0.387187       -10.5359 
  72   2.0000      -0.368168       -10.0184 
  73   2.0000      -0.345927        -9.4132 
  74   2.0000      -0.332639        -9.0516 
  75   2.0000      -0.299945        -8.1619 
  76   2.0000      -0.283977        -7.7274 
  77   2.0000      -0.268104        -7.2955 
  78   2.0000      -0.239386        -6.5140 
  79   0.0000       0.000277         0.0075 
  80   0.0000       0.024064         0.6548 
  81   0.0000       0.033780         0.9192 
  82   0.0000       0.047797         1.3006 
  83   0.0000       0.073108         1.9894 
  84   0.0000       0.074675         2.0320 
  85   0.0000       0.078279         2.1301 
  86   0.0000       0.080576         2.1926 
  87   0.0000       0.091552         2.4913 
  88   0.0000       0.092331         2.5125 
  89   0.0000       0.097035         2.6405 
*Only the first 10 virtual orbitals were printed.
-------
TIMINGS
-------

Total SCF time: 0 days 0 hours 9 min 38 sec 

Total time                  ....     578.458 sec
Sum of individual times     ....     578.306 sec  (100.0%)

SCF preparation             ....      16.732 sec  (  2.9%)
Fock matrix formation       ....     539.912 sec  ( 93.3%)
  Startup                   ....       1.426 sec  (  0.3% of F)
  Coulomb+Exchange Fock     ....     525.297 sec  ( 97.3% of F)
  XC integration            ....       9.809 sec  (  1.8% of F)
    XC Preparation          ....       0.000 sec  (  0.0% of XC)
    Basis function eval.    ....       0.898 sec  (  9.2% of XC)
    Density eval.           ....       1.885 sec  ( 19.2% of XC)
    XC-Functional eval.     ....       0.029 sec  (  0.3% of XC)
    XC-Potential eval.      ....       2.032 sec  ( 20.7% of XC)
Diagonalization             ....       0.000 sec  (  0.0%)
Density matrix formation    ....       3.113 sec  (  0.5%)
Total Energy calculation    ....       1.624 sec  (  0.3%)
Population analysis         ....       0.000 sec  (  0.0%)
Orbital Transformation      ....       2.361 sec  (  0.4%)
Orbital Orthonormalization  ....       0.000 sec  (  0.0%)
DIIS solution               ....      10.030 sec  (  1.7%)
SOSCF solution              ....       4.435 sec  (  0.8%)
Finished LeanSCF after 579.2 sec

Maximum memory used throughout the entire LEANSCF-calculation: 242.2 MB


           ************************************************************
           *        Program running with 104 parallel MPI-processes   *
           *              working on a common directory               *
           ************************************************************

------------------------------------------------------------------------------
                                ORCA  MP2 
------------------------------------------------------------------------------


----------
MP2 ENERGY (disk based algorithm)
----------

Dimension of the basis                      ... 1788
Memory devoted to MP2                       ... 4096 MB   
Data format for buffers                     ... DOUBLE
Compression type for matrix containers      ... UNCOMPRESSED
Scaling for aa/bb pairs                     ...   5.710e-02
Scaling for ab pairs                        ...   5.979e-01
Overall scaling of the MP2 energy           ...   1.000e+00

-------------------------
SHARK HALF TRANSFORMATION (Exchange order)
-------------------------

Number of basis functions                   ...   1788
Number of operators                         ...      1
   Operator  0:    0-  78 (p-index in (p*|q*))
   Operator  0:    0-  78 (q-index in (p*|q*)
Integral generator used                     ... SHARK
Contraction scheme used                     ... SEGMENTED CONTRACTION
MaxCore in resort                           ...   4096 MB

Half transformed integrals for op=   0      ... compas3D_hc_c24h14_0pent_3_qz_nori.SHARK_MNPQ0.tmp
Resorted half transformed integrals         ... compas3D_hc_c24h14_0pent_3_qz_nori.KAO_aa.tmp


ORCA finished by error termination in MP2
Calling Command: mpirun -np 104  /apps/orca/6.0.1/orca_mp2_mpi compas3D_hc_c24h14_0pent_3_qz_nori.mp2inp.tmp compas3D_hc_c24h14_0pent_3_qz_nori 
[file orca_tools/qcmsg.cpp, line 394]: 
  .... aborting the run

