
                                 *****************
                                 * O   R   C   A *
                                 *****************

                                            #,                                       
                                            ###                                      
                                            ####                                     
                                            #####                                    
                                            ######                                   
                                           ########,                                 
                                     ,,################,,,,,                         
                               ,,#################################,,                 
                          ,,##########################################,,             
                       ,#########################################, ''#####,          
                    ,#############################################,,   '####,        
                  ,##################################################,,,,####,       
                ,###########''''           ''''###############################       
              ,#####''   ,,,,##########,,,,          '''####'''          '####       
            ,##' ,,,,###########################,,,                        '##       
           ' ,,###''''                  '''############,,,                           
         ,,##''                                '''############,,,,        ,,,,,,###''
      ,#''                                            '''#######################'''  
     '                                                          ''''####''''         
             ,#######,   #######,   ,#######,      ##                                
            ,#'     '#,  ##    ##  ,#'     '#,    #''#        ,####,   ,####,        
            ##       ##  ##   ,#'  ##            #'  '#       #'       #'  '#        
            ##       ##  #######   ##           ,######,      #####,   #    #        
            '#,     ,#'  ##    ##  '#,     ,#' ,#      #,     #,   #   #,  ,#        
             '#######'   ##     ##  '#######'  #'      '#     '####' # '####'        



                #########################################################
                #                        -***-                          #
                #          Department of theory and spectroscopy        #
                #                                                       #
                #                      Frank Neese                      #
                #                                                       #
                #     Directorship, Architecture, Infrastructure        #
                #                    SHARK, DRIVERS                     #
                #        Core code/Algorithms in most modules           #
                #                                                       #
                #        Max Planck Institute fuer Kohlenforschung      #
                #                Kaiser Wilhelm Platz 1                 #
                #                 D-45470 Muelheim/Ruhr                 #
                #                      Germany                          #
                #                                                       #
                #                  All rights reserved                  #
                #                        -***-                          #
                #########################################################


                         Program Version 6.0.1  -  RELEASE   -


 With contributions from (in alphabetic order):
[Max-Planck-Institut fuer Kohlenforschung]                               
  Daniel Aravena         : Magnetic Suceptibility                        
  Michael Atanasov       : Ab Initio Ligand Field Theory (pilot matlab implementation)
  Alexander A. Auer      : GIAO ZORA, VPT2 properties, NMR spectrum      
  Ute Becker             : All parallelization in ORCA, NUMFREQ, NUMCALC 
  Giovanni Bistoni       : ED, misc. LED, open-shell LED, HFLD           
  Martin Brehm           : Molecular dynamics                            
  Dmytro Bykov           : pre 5.0 version of the SCF Hessian            
  Marcos Casanova-Páez   : Triplet and SCS-CIS(D). UHF-(DLPNO)-IP/EA/STEOM-CCSD. UHF-CVS-IP/STEOM-CCSD   
  Vijay G. Chilkuri      : MRCI spin determinant printing, contributions to CSF-ICE 
  Pauline Colinet        : FMM embedding                                 
  Dipayan Datta          : RHF DLPNO-CCSD density                        
  Achintya Kumar Dutta   : EOM-CC, STEOM-CC                              
  Nicolas Foglia         : Exact transition moments, OPA infrastructure, MCD improvements    
  Dmitry Ganyushin       : Spin-Orbit,Spin-Spin,Magnetic field MRCI      
  Miquel Garcia-Rates    : C-PCM and meta-GGA Hessian, CCSD/C-PCM, Gaussian charge scheme 
  Tiago L. C. Gouveia    : GS-ROHF, GS-ROCIS                             
  Yang Guo               : DLPNO-NEVPT2, F12-NEVPT2, CIM, IAO-localization        
  Andreas Hansen         : Spin unrestricted coupled pair/coupled cluster methods 
  Ingolf Harden          : AUTO-CI MPn and infrastructure                
  Benjamin Helmich-Paris : MC-RPA, TRAH-(SCF,CASSCF), AVAS, COSX integrals, SCF dyn. polar. 
  Lee Huntington         : MR-EOM, pCC                                   
  Robert Izsak           : Overlap fitted RIJCOSX, COSX-SCS-MP3, EOM     
  Riya Kayal             : Wick's Theorem for AUTO-CI, AUTO-CI UHF-CCSDT 
  Emily Kempfer          : AUTO-CI, RHF CISDT and CCSDT                  
  Christian Kollmar      : KDIIS, OOCD, Brueckner-CCSD(T), CCSD density, CASPT2, CASPT2-K, improved NEVPT2 
  Axel Koslowski         : Symmetry handling                             
  Simone Kossmann        : meta-GGA functionals, TD-DFT gradient, OOMP2, (MP2 Hessian; deprecated post 5.0) 
  Lucas Lang             : DCDCAS                                        
  Marvin Lechner         : AUTO-CI (C++ implementation), FIC-MRCC        
  Spencer Leger          : CASSCF response                               
  Dagmar Lenk            : GEPOL surface, SMD, ORCA-2-JSON               
  Dimitrios Liakos       : Extrapolation schemes; Compound Job, initial MDCI parallelization 
  Dimitrios Manganas     : Further ROCIS development; embedding schemes. LFT, Crystal Embedding 
  Dimitrios Pantazis     : SARC Basis sets                               
  Anastasios Papadopoulos: AUTO-CI, single reference methods and gradients 
  Taras Petrenko         : pre 6.0 DFT Hessian and TD-DFT gradient, (ASA, deprecated), ECA, 1-Electron XAS/XES, NRVS 
  Peter Pinski           : DLPNO-MP2, DLPNO-MP2 Gradient                 
  Christoph Reimann      : Effective Core Potentials                     
  Marius Retegan         : Local ZFS, SOC                                
  Christoph Riplinger    : Optimizer, TS searches, QM/MM, DLPNO-CCSD(T), (RO)-DLPNO pert. Triples 
  Michael Roemelt        : Original ROCIS implementation                 
  Masaaki Saitow         : Open-shell DLPNO-CCSD energy and density      
  Barbara Sandhoefer     : DKH picture change effects                    
  Kantharuban Sivalingam : CASSCF convergence/infrastructure, NEVPT2 and variants, FIC-MRCI 
  Bernardo de Souza      : ESD, SOC TD-DFT                               
  Georgi L. Stoychev     : AutoAux, RI-MP2 NMR, DLPNO-MP2 response, X2C  
  Van Anh Tran           : RI-MP2 g-tensors                              
  Willem Van den Heuvel  : Paramagnetic NMR                              
  Zikuan Wang            : NOTCH, Electric field optimization            
  Frank Wennmohs         : Technical directorship and infrastructure     
  Hang Xu                : AUTO-CI-Response properties                   
                                                                         
[FACCTs GmbH]                                                            
  Markus Bursch, Miquel Garcia-Rates, Christoph Riplinger, Bernardo de Souza, Georgi L. Stoychev 
                                                                 
  APM, Basis sets (HGBS, AHGBS, def-TZVP (Ac-Lr), def2-XVPD (La-Lu)), CI-OPT, improved COSX, DLPNO-Multilevel,           
  DOCKER, DRACO, updates on ESD, GOAT, IRC, LR-CPCM, MBIS, meta-GGA TD-DFT gradient, ML-optimized integration grids, 
  MM, NACMEs, nearIR, NEB, NEB-TS, NL-DFT gradient (VV10), 2- and 3-layer-ONIOM, interface openCOSMO-RS, QMMM,   
  Crystal-QMMM, SF, symmetry and pop. for TD-DFT, r2SCAN hybrids, SOLVATOR                                   
                                                                         
[Other institutions]                                                     
  V. Asgeirsson          : NEB                                           
  Christoph Bannwarth    : sTDA-DFT, sTD-DFT, PBEh-3c, B97-3c, D3        
  Sebastian Ehlert       : rSCAN, r2SCAN, r2SCAN-3c, D4, dhf basis sets  
  Marvin Friede          : D4 for Fr, Ra, Ac-Lr                          
  Lars Goerigk           : TD-DFT with DH, B97 family of functionals     
  Stefan Grimme          : VdW corrections, initial TS optimization, DFT functionals, gCP, sTDA/sTD-DF 
  Waldemar Hujo          : DFT-NL                                        
  H. Jonsson             : NEB                                           
  Holger Kruse           : gCP                                           
  Marcel Mueller         : wB97X-3c, vDZP basis set                      
  Hagen Neugebauer       : wr2SCAN                                       
  Tobias Risthaus        : range-separated hybrid DFT                    
  Lukas Wittmann         : regularized MP2, r2SCAN double-hybrids, wr2SCAN        
                                                                         
We gratefully acknowledge several colleagues who have allowed us to      
interface, adapt or use parts of their codes:                            
  Ed Valeev, F. Pavosevic, A. Kumar             : LibInt (2-el integral package), F12 methods 
  Garnet Chan, S. Sharma, J. Yang, R. Olivares  : DMRG                   
  Ulf Ekstrom                                   : XCFun DFT Library      
  Mihaly Kallay                                 : mrcc  (arbitrary order and MRCC methods)
  Frank Weinhold                                : gennbo (NPA and NBO analysis)           
  Simon Mueller                                 : openCOSMO-RS                            
  Christopher J. Cramer and Donald G. Truhlar   : smd solvation model                     
  S Lehtola, MJT Oliveira, MAL Marques          : LibXC Library                           
  Liviu Ungur et al                             : ANISO software                          


 Your calculation uses the libint2 library for the computation of 2-el integrals
 For citations please refer to: http://libint.valeyev.net

 Your ORCA version has been built with support for libXC version: 6.2.2
 For citations please refer to: https://libxc.gitlab.io

 This ORCA versions uses:
   CBLAS   interface :  Fast vector & matrix operations
   LAPACKE interface :  Fast linear algebra routines
   SCALAPACK package :  Parallel linear algebra routines
   Shared memory     :  Shared parallel matrices
   BLAS/LAPACK       :  OpenBLAS 0.3.27  USE64BITINT DYNAMIC_ARCH NO_AFFINITY SapphireRapids SINGLE_THREADED
        Core in use  :  SapphireRapids
   Copyright (c) 2011-2014, The OpenBLAS Project


Warning! Weird basis set assignment to AuxJK basis!


***************************************
The coordinates will be read from file: /g/data/kx58/rs2200/dhdft/inputs/compas3D-xyzs/hc_c38h20_0pent_1.xyz
***************************************


Your calculation utilizes the atom-pairwise dispersion correction
based on EEQ partial charges (D4)


================================================================================

----- Orbital basis set information -----
Your calculation utilizes the basis: def2-QZVPP
   F. Weigend and R. Ahlrichs, Phys. Chem. Chem. Phys. 7, 3297 (2005).

----- AuxC basis set information -----
Your calculation utilizes the auxiliary basis: def2-QZVPP/C
  H-La, Hf-Rn : A. Hellweg, C. Hattig, S. Hofener and W. Klopper, Theor. Chem. Acc. 117, 587 (2007).
        Ce-Lu : J. Chmela and M. E. Harding, Mol. Phys. (2018).

----- AuxJK basis set information -----
Your calculation utilizes the auxiliary basis: def2-QZVPP/C
  H-La, Hf-Rn : A. Hellweg, C. Hattig, S. Hofener and W. Klopper, Theor. Chem. Acc. 117, 587 (2007).
        Ce-Lu : J. Chmela and M. E. Harding, Mol. Phys. (2018).

================================================================================
                                        WARNINGS
                       Please study these warnings very carefully!
================================================================================


WARNING: No MP2 level density has been requested!
         To calculate MP2 level properties use
         %mp2 Density relaxed end
         or
         %mp2 Density unrelaxed end
         Otherwise for double-hybrid DFT only the energy is correct!

================================================================================
                                       INPUT FILE
================================================================================
NAME = compas3D_hc_c38h20_0pent_1_qz_riri.inp
|  1> ! RKS revDSD-PBEP86-D4/2021 defgrid3  RIJK NOPOP NoFrozencore NoUseSym
|  2> 
|  3> %basis
|  4> Basis "def2-QZVPP"
|  5> AuxJK "def2-QZVPP/C"
|  6> AuxC "def2-QZVPP/C"
|  7> end
|  8> 
|  9> %method
| 10> ScalHFX 0.69
| 11> ScalDFX 0.31
| 12> ScalDFC 0.4038
| 13> ScalLDAC 0.4038
| 14> 
| 15> D4S6 0.4612
| 16> D4S8 0.0
| 17> D4A1 0.44
| 18> D4A2 3.60
| 19> end
| 20> 
| 21> %mp2
| 22> PS 0.5979
| 23> PT 0.0571
| 24> 
| 25> end
| 26> 
| 27> %pal
| 28> nprocs 104
| 29> end
| 30> 
| 31> *XYZFILE 0 1 /g/data/kx58/rs2200/dhdft/inputs/compas3D-xyzs/hc_c38h20_0pent_1.xyz
| 32> 
| 33>                          ****END OF INPUT****
================================================================================

                       ****************************
                       * Single Point Calculation *
                       ****************************

---------------------------------
CARTESIAN COORDINATES (ANGSTROEM)
---------------------------------
  C      3.131105   -1.797608   -1.005430
  C      2.110539   -2.757288   -1.235952
  C      0.745354   -2.337238   -1.336485
  C      0.393271   -0.982328   -1.103428
  C      1.417544   -0.049618   -0.628961
  C      2.757354   -0.403730   -0.771830
  C      4.458351   -2.236671   -0.959476
  C      4.781174   -3.580907   -1.126111
  C      3.788592   -4.518383   -1.361730
  C      2.446658   -4.124100   -1.430410
  C      1.399238   -5.065727   -1.724851
  C      0.116526   -4.660748   -1.869142
  C     -0.253596   -3.280141   -1.704811
  C     -1.566806   -2.845096   -1.915164
  C     -1.880127   -1.499879   -1.800321
  C     -0.914155   -0.583397   -1.400893
  C      1.088571    1.279774   -0.121092
  C      2.074167    2.309690   -0.292880
  C      3.422436    1.927032   -0.597132
  C      3.761612    0.623393   -0.726816
  C     -0.109318    1.628798    0.550512
  C     -0.494574    2.992243    0.612946
  C      0.439897    4.016941    0.262954
  C      1.738015    3.643027   -0.100384
  C     -1.826171    3.366655    1.005160
  C     -2.151648    4.704995    1.064317
  C     -1.216611    5.714477    0.740600
  C      0.048881    5.382687    0.347608
  C     -0.952383    0.655222    1.270025
  C     -2.315436    0.984052    1.535651
  C     -2.802711    2.306879    1.318000
  C     -3.191957   -0.013619    2.047926
  C     -4.566204    0.292744    2.208931
  C     -5.038373    1.544771    1.904811
  C     -4.154628    2.553618    1.477072
  C     -0.468694   -0.561378    1.715266
  C     -1.320615   -1.527860    2.281331
  C     -2.663976   -1.281139    2.403027
  H      5.264100   -1.529953   -0.767587
  H      5.825891   -3.893345   -1.071903
  H      4.043073   -5.570720   -1.505769
  H      1.669941   -6.115797   -1.855197
  H     -0.668041   -5.377471   -2.122244
  H     -2.331017   -3.572182   -2.198436
  H     -2.892574   -1.151576   -2.012843
  H     -1.187625    0.465877   -1.320760
  H      4.178252    2.710811   -0.679870
  H      4.803982    0.360800   -0.896955
  H      2.499952    4.413000   -0.241742
  H     -3.151972    5.006700    1.373810
  H     -1.517955    6.761772    0.805692
  H      0.778086    6.153815    0.090511
  H     -5.238990   -0.482981    2.581047
  H     -6.099664    1.774928    2.017106
  H     -4.554580    3.548490    1.281387
  H      0.587876   -0.796194    1.599264
  H     -0.904218   -2.486874    2.594859
  H     -3.339819   -2.042245    2.798792

----------------------------
CARTESIAN COORDINATES (A.U.)
----------------------------
  NO LB      ZA    FRAG     MASS         X           Y           Z
   0 C     6.0000    0    12.011    5.916932   -3.396986   -1.899987
   1 C     6.0000    0    12.011    3.988342   -5.210520   -2.335612
   2 C     6.0000    0    12.011    1.408514   -4.416739   -2.525592
   3 C     6.0000    0    12.011    0.743175   -1.856331   -2.085176
   4 C     6.0000    0    12.011    2.678771   -0.093765   -1.188563
   5 C     6.0000    0    12.011    5.210645   -0.762940   -1.458548
   6 C     6.0000    0    12.011    8.425063   -4.226696   -1.813146
   7 C     6.0000    0    12.011    9.035110   -6.766933   -2.128041
   8 C     6.0000    0    12.011    7.159402   -8.538507   -2.573297
   9 C     6.0000    0    12.011    4.623513   -7.793420   -2.703084
  10 C     6.0000    0    12.011    2.644177   -9.572836   -3.259495
  11 C     6.0000    0    12.011    0.220203   -8.807537   -3.532167
  12 C     6.0000    0    12.011   -0.479227   -6.198567   -3.221626
  13 C     6.0000    0    12.011   -2.960835   -5.376451   -3.619136
  14 C     6.0000    0    12.011   -3.552925   -2.834361   -3.402114
  15 C     6.0000    0    12.011   -1.727503   -1.102460   -2.647304
  16 C     6.0000    0    12.011    2.057101    2.418422   -0.228831
  17 C     6.0000    0    12.011    3.919608    4.364682   -0.553463
  18 C     6.0000    0    12.011    6.467466    3.641563   -1.128416
  19 C     6.0000    0    12.011    7.108417    1.178042   -1.373483
  20 C     6.0000    0    12.011   -0.206582    3.077983    1.040317
  21 C     6.0000    0    12.011   -0.934609    5.654520    1.158301
  22 C     6.0000    0    12.011    0.831284    7.590919    0.496911
  23 C     6.0000    0    12.011    3.284372    6.884323   -0.189699
  24 C     6.0000    0    12.011   -3.450962    6.362056    1.899477
  25 C     6.0000    0    12.011   -4.066026    8.891151    2.011268
  26 C     6.0000    0    12.011   -2.299062   10.798796    1.399530
  27 C     6.0000    0    12.011    0.092371   10.171805    0.656884
  28 C     6.0000    0    12.011   -1.799743    1.238191    2.399999
  29 C     6.0000    0    12.011   -4.375539    1.859589    2.901961
  30 C     6.0000    0    12.011   -5.296355    4.359370    2.490659
  31 C     6.0000    0    12.011   -6.031924   -0.025735    3.870019
  32 C     6.0000    0    12.011   -8.628875    0.553206    4.174274
  33 C     6.0000    0    12.011   -9.521146    2.919194    3.599570
  34 C     6.0000    0    12.011   -7.851108    4.825639    2.791262
  35 C     6.0000    0    12.011   -0.885703   -1.060851    3.241383
  36 C     6.0000    0    12.011   -2.495601   -2.887236    4.311091
  37 C     6.0000    0    12.011   -5.034186   -2.421002    4.541064
  38 H     1.0000    0     1.008    9.947708   -2.891192   -1.450530
  39 H     1.0000    0     1.008   11.009338   -7.357355   -2.025604
  40 H     1.0000    0     1.008    7.640300  -10.527136   -2.845491
  41 H     1.0000    0     1.008    3.155732  -11.557181   -3.505814
  42 H     1.0000    0     1.008   -1.262415  -10.161947   -4.010460
  43 H     1.0000    0     1.008   -4.404983   -6.750446   -4.154442
  44 H     1.0000    0     1.008   -5.466173   -2.176162   -3.803722
  45 H     1.0000    0     1.008   -2.244287    0.880380   -2.495874
  46 H     1.0000    0     1.008    7.895752    5.122691   -1.284768
  47 H     1.0000    0     1.008    9.078210    0.681812   -1.694998
  48 H     1.0000    0     1.008    4.724225    8.339362   -0.456826
  49 H     1.0000    0     1.008   -5.956365    9.461291    2.596125
  50 H     1.0000    0     1.008   -2.868520   12.777897    1.522537
  51 H     1.0000    0     1.008    1.470369   11.629024    0.171041
  52 H     1.0000    0     1.008   -9.900257   -0.912703    4.877473
  53 H     1.0000    0     1.008  -11.526694    3.354127    3.811778
  54 H     1.0000    0     1.008   -8.606909    6.705674    2.421471
  55 H     1.0000    0     1.008    1.110924   -1.504589    3.022172
  56 H     1.0000    0     1.008   -1.708725   -4.699510    4.903572
  57 H     1.0000    0     1.008   -6.311343   -3.859284    5.288950

--------------------------------
INTERNAL COORDINATES (ANGSTROEM)
--------------------------------
 C      0   0   0     0.000000000000     0.00000000     0.00000000
 C      1   0   0     1.419747158271     0.00000000     0.00000000
 C      2   1   0     1.431880544913   119.89815223     0.00000000
 C      3   2   1     1.419175287055   120.33634674   355.05891380
 C      4   3   2     1.464309281439   119.19560508   353.90886054
 C      5   4   3     1.393161034331   118.52709361    17.60433117
 C      1   2   3     1.398738714721   118.37552519   182.20731907
 C      7   1   2     1.392462141712   121.27075548   359.60295676
 C      8   7   1     1.385495736686   120.49498683     0.91672157
 C      9   8   7     1.400344267101   120.28842126   359.77860490
 C     10   9   8     1.438903496665   121.55701484   177.56245039
 C     11  10   9     1.352840960716   121.07237375   184.06202934
 C      3   2   1     1.422191684022   119.56267144   173.48524875
 C     13   3   2     1.399297932542   119.47177994   185.49007441
 C     14  13   3     1.385989248773   120.09632339     1.75234123
 C     15  14  13     1.390174117424   120.43691582   356.26702369
 C      5   4   3     1.460628876275   122.33377042   192.17425810
 C     17   5   4     1.435840948732   117.17057439   209.53378351
 C     18  17   5     1.434163518990   118.64033618   343.13519504
 C     19  18  17     1.353267782995   120.86287915     0.31202365
 C     17   5   4     1.416971580811   125.40782801    30.92711511
 C     21  17   5     1.418203306040   119.16474507   199.91724957
 C     22  21  17     1.430292802210   120.03376494   346.71662454
 C     18  17   5     1.388466565953   120.40030842   166.35231817
 C     22  21  17     1.437764031038   120.92785932   165.72640291
 C     25  22  21     1.378618331514   118.89240735   179.36534718
 C     26  25  22     1.413556324134   121.82211331     0.49492437
 C     27  26  25     1.366014886552   120.34646682     0.40149537
 C     21  17   5     1.475231031255   123.48605982    23.78654640
 C     29  21  17     1.427094674031   118.98306189   200.11181442
 C     30  29  21     1.426422428973   120.76780563   349.51819374
 C     30  29  21     1.423397598916   119.58051907   170.72911908
 C     32  30  29     1.417157739406   119.11175318   184.92389951
 C     33  32  30     1.372226265564   120.38027028   358.45781213
 C     31  30  29     1.383424611047   118.79532569   174.44364410
 C     29  21  17     1.382863708175   122.53045533    20.99489722
 C     36  29  21     1.407226476951   121.46576910   186.35262684
 C     37  36  29     1.371240322521   120.34528217     0.08488881
 H      7   1   2     1.088808307494   120.28155365   181.05425389
 H      8   7   1     1.091782069661   119.48275749   180.78929981
 H      9   8   7     1.092209010723   120.49358581   179.17508623
 H     11  10   9     1.092207208089   118.23978752     2.49413491
 H     12  11  10     1.092382024786   120.61648328   178.15213187
 H     14  13   3     1.092206620890   119.25299479   179.96767005
 H     15  14  13     1.091572546431   120.21467329   176.92621120
 H     16  15  14     1.087282549793   118.85656111   179.91229329
 H     19  18  17     1.091976846271   118.37649421   182.86974837
 H     20  19  18     1.088318334286   119.17439265   183.75093533
 H     24  18  17     1.092423737779   119.34349527   180.37580527
 H     26  25  22     1.089706674565   119.84733656   180.89637200
 H     27  26  25     1.091728684930   119.26430579   180.24372312
 H     28  27  26     1.092005843331   120.98690312   179.70439719
 H     33  32  30     1.092182115865   118.84981299   178.63457820
 H     34  33  32     1.091750761240   120.26778393   179.19731568
 H     35  31  30     1.089965239153   120.04854176   182.18525541
 H     36  29  21     1.088546440702   119.66758512     4.35063496
 H     37  36  29     1.091510166502   119.21092095   178.28810626
 H     38  37  36     1.092096297674   120.86618585   177.18303955

---------------------------
INTERNAL COORDINATES (A.U.)
---------------------------
 C      0   0   0     0.000000000000     0.00000000     0.00000000
 C      1   0   0     2.682933308545     0.00000000     0.00000000
 C      2   1   0     2.705862086376   119.89815223     0.00000000
 C      3   2   1     2.681852628564   120.33634674   355.05891380
 C      4   3   2     2.767143517279   119.19560508   353.90886054
 C      5   4   3     2.632692815335   118.52709361    17.60433117
 C      1   2   3     2.643233103736   118.37552519   182.20731907
 C      7   1   2     2.631372099689   121.27075548   359.60295676
 C      8   7   1     2.618207502052   120.49498683     0.91672157
 C      9   8   7     2.646267158028   120.28842126   359.77860490
 C     10   9   8     2.719133541838   121.55701484   177.56245039
 C     11  10   9     2.556498918504   121.07237375   184.06202934
 C      3   2   1     2.687552792741   119.56267144   173.48524875
 C     13   3   2     2.644289872266   119.47177994   185.49007441
 C     14  13   3     2.619140104740   120.09632339     1.75234123
 C     15  14  13     2.627048360398   120.43691582   356.26702369
 C      5   4   3     2.760188559458   122.33377042   192.17425810
 C     17   5   4     2.713346164972   117.17057439   209.53378351
 C     18  17   5     2.710176282152   118.64033618   343.13519504
 C     19  18  17     2.557305495719   120.86287915     0.31202365
 C     17   5   4     2.677688227283   125.40782801    30.92711511
 C     21  17   5     2.680015850637   119.16474507   199.91724957
 C     22  21  17     2.702861687496   120.03376494   346.71662454
 C     18  17   5     2.623821555757   120.40030842   166.35231817
 C     22  21  17     2.716980263865   120.92785932   165.72640291
 C     25  22  21     2.605211089766   118.89240735   179.36534718
 C     26  25  22     2.671234327485   121.82211331     0.49492437
 C     27  26  25     2.581394030442   120.34646682     0.40149537
 C     21  17   5     2.787782633334   123.48605982    23.78654640
 C     29  21  17     2.696818101097   118.98306189   200.11181442
 C     30  29  21     2.695547742042   120.76780563   349.51819374
 C     30  29  21     2.689831641631   119.58051907   170.72911908
 C     32  30  29     2.678040016045   119.11175318   184.92389951
 C     33  32  30     2.593131835689   120.38027028   358.45781213
 C     31  30  29     2.614293641806   118.79532569   174.44364410
 C     29  21  17     2.613233688989   122.53045533    20.99489722
 C     36  29  21     2.659272649841   121.46576910   186.35262684
 C     37  36  29     2.591268673355   120.34528217     0.08488881
 H      7   1   2     2.057549513502   120.28155365   181.05425389
 H      8   7   1     2.063169109585   119.48275749   180.78929981
 H      9   8   7     2.063975911268   120.49358581   179.17508623
 H     11  10   9     2.063972504784   118.23978752     2.49413491
 H     12  11  10     2.064302860464   120.61648328   178.15213187
 H     14  13   3     2.063971395137   119.25299479   179.96767005
 H     15  14  13     2.062773168062   120.21467329   176.92621120
 H     16  15  14     2.054666249300   118.85656111   179.91229329
 H     19  18  17     2.063537184035   118.37649421   182.86974837
 H     20  19  18     2.056623598326   119.17439265   183.75093533
 H     24  18  17     2.064381686597   119.34349527   180.37580527
 H     26  25  22     2.059247181233   119.84733656   180.89637200
 H     27  26  25     2.063068227064   119.26430579   180.24372312
 H     28  27  26     2.063591980538   120.98690312   179.70439719
 H     33  32  30     2.063925087351   118.84981299   178.63457820
 H     34  33  32     2.063109945243   120.26778393   179.19731568
 H     35  31  30     2.059735797494   120.04854176   182.18525541
 H     36  29  21     2.057054656981   119.66758512     4.35063496
 H     37  36  29     2.062655287080   119.21092095   178.28810626
 H     38  37  36     2.063762914472   120.86618585   177.18303955

---------------------
BASIS SET INFORMATION
---------------------
There are 2 groups of distinct atoms

 Group   1 Type C   : 15s8p3d2f1g contracted to 7s4p3d2f1g pattern {8211111/5111/111/11/1}
 Group   2 Type H   : 7s3p2d1f contracted to 4s3p2d1f pattern {4111/111/11/1}

Atom   0C    basis set group =>   1
Atom   1C    basis set group =>   1
Atom   2C    basis set group =>   1
Atom   3C    basis set group =>   1
Atom   4C    basis set group =>   1
Atom   5C    basis set group =>   1
Atom   6C    basis set group =>   1
Atom   7C    basis set group =>   1
Atom   8C    basis set group =>   1
Atom   9C    basis set group =>   1
Atom  10C    basis set group =>   1
Atom  11C    basis set group =>   1
Atom  12C    basis set group =>   1
Atom  13C    basis set group =>   1
Atom  14C    basis set group =>   1
Atom  15C    basis set group =>   1
Atom  16C    basis set group =>   1
Atom  17C    basis set group =>   1
Atom  18C    basis set group =>   1
Atom  19C    basis set group =>   1
Atom  20C    basis set group =>   1
Atom  21C    basis set group =>   1
Atom  22C    basis set group =>   1
Atom  23C    basis set group =>   1
Atom  24C    basis set group =>   1
Atom  25C    basis set group =>   1
Atom  26C    basis set group =>   1
Atom  27C    basis set group =>   1
Atom  28C    basis set group =>   1
Atom  29C    basis set group =>   1
Atom  30C    basis set group =>   1
Atom  31C    basis set group =>   1
Atom  32C    basis set group =>   1
Atom  33C    basis set group =>   1
Atom  34C    basis set group =>   1
Atom  35C    basis set group =>   1
Atom  36C    basis set group =>   1
Atom  37C    basis set group =>   1
Atom  38H    basis set group =>   2
Atom  39H    basis set group =>   2
Atom  40H    basis set group =>   2
Atom  41H    basis set group =>   2
Atom  42H    basis set group =>   2
Atom  43H    basis set group =>   2
Atom  44H    basis set group =>   2
Atom  45H    basis set group =>   2
Atom  46H    basis set group =>   2
Atom  47H    basis set group =>   2
Atom  48H    basis set group =>   2
Atom  49H    basis set group =>   2
Atom  50H    basis set group =>   2
Atom  51H    basis set group =>   2
Atom  52H    basis set group =>   2
Atom  53H    basis set group =>   2
Atom  54H    basis set group =>   2
Atom  55H    basis set group =>   2
Atom  56H    basis set group =>   2
Atom  57H    basis set group =>   2
---------------------------------
AUXILIARY/C BASIS SET INFORMATION
---------------------------------
There are 2 groups of distinct atoms

 Group   1 Type C   : 9s8p7d5f3g1h contracted to 9s8p7d5f3g1h pattern {111111111/11111111/1111111/11111/111/1}
 Group   2 Type H   : 6s4p3d2f1g contracted to 6s4p3d2f1g pattern {111111/1111/111/11/1}

Atom   0C    basis set group =>   1
Atom   1C    basis set group =>   1
Atom   2C    basis set group =>   1
Atom   3C    basis set group =>   1
Atom   4C    basis set group =>   1
Atom   5C    basis set group =>   1
Atom   6C    basis set group =>   1
Atom   7C    basis set group =>   1
Atom   8C    basis set group =>   1
Atom   9C    basis set group =>   1
Atom  10C    basis set group =>   1
Atom  11C    basis set group =>   1
Atom  12C    basis set group =>   1
Atom  13C    basis set group =>   1
Atom  14C    basis set group =>   1
Atom  15C    basis set group =>   1
Atom  16C    basis set group =>   1
Atom  17C    basis set group =>   1
Atom  18C    basis set group =>   1
Atom  19C    basis set group =>   1
Atom  20C    basis set group =>   1
Atom  21C    basis set group =>   1
Atom  22C    basis set group =>   1
Atom  23C    basis set group =>   1
Atom  24C    basis set group =>   1
Atom  25C    basis set group =>   1
Atom  26C    basis set group =>   1
Atom  27C    basis set group =>   1
Atom  28C    basis set group =>   1
Atom  29C    basis set group =>   1
Atom  30C    basis set group =>   1
Atom  31C    basis set group =>   1
Atom  32C    basis set group =>   1
Atom  33C    basis set group =>   1
Atom  34C    basis set group =>   1
Atom  35C    basis set group =>   1
Atom  36C    basis set group =>   1
Atom  37C    basis set group =>   1
Atom  38H    basis set group =>   2
Atom  39H    basis set group =>   2
Atom  40H    basis set group =>   2
Atom  41H    basis set group =>   2
Atom  42H    basis set group =>   2
Atom  43H    basis set group =>   2
Atom  44H    basis set group =>   2
Atom  45H    basis set group =>   2
Atom  46H    basis set group =>   2
Atom  47H    basis set group =>   2
Atom  48H    basis set group =>   2
Atom  49H    basis set group =>   2
Atom  50H    basis set group =>   2
Atom  51H    basis set group =>   2
Atom  52H    basis set group =>   2
Atom  53H    basis set group =>   2
Atom  54H    basis set group =>   2
Atom  55H    basis set group =>   2
Atom  56H    basis set group =>   2
Atom  57H    basis set group =>   2
----------------------------------
AUXILIARY/JK BASIS SET INFORMATION
----------------------------------
There are 2 groups of distinct atoms

 Group   1 Type C   : 9s8p7d5f3g1h contracted to 9s8p7d5f3g1h pattern {111111111/11111111/1111111/11111/111/1}
 Group   2 Type H   : 6s4p3d2f1g contracted to 6s4p3d2f1g pattern {111111/1111/111/11/1}

Atom   0C    basis set group =>   1
Atom   1C    basis set group =>   1
Atom   2C    basis set group =>   1
Atom   3C    basis set group =>   1
Atom   4C    basis set group =>   1
Atom   5C    basis set group =>   1
Atom   6C    basis set group =>   1
Atom   7C    basis set group =>   1
Atom   8C    basis set group =>   1
Atom   9C    basis set group =>   1
Atom  10C    basis set group =>   1
Atom  11C    basis set group =>   1
Atom  12C    basis set group =>   1
Atom  13C    basis set group =>   1
Atom  14C    basis set group =>   1
Atom  15C    basis set group =>   1
Atom  16C    basis set group =>   1
Atom  17C    basis set group =>   1
Atom  18C    basis set group =>   1
Atom  19C    basis set group =>   1
Atom  20C    basis set group =>   1
Atom  21C    basis set group =>   1
Atom  22C    basis set group =>   1
Atom  23C    basis set group =>   1
Atom  24C    basis set group =>   1
Atom  25C    basis set group =>   1
Atom  26C    basis set group =>   1
Atom  27C    basis set group =>   1
Atom  28C    basis set group =>   1
Atom  29C    basis set group =>   1
Atom  30C    basis set group =>   1
Atom  31C    basis set group =>   1
Atom  32C    basis set group =>   1
Atom  33C    basis set group =>   1
Atom  34C    basis set group =>   1
Atom  35C    basis set group =>   1
Atom  36C    basis set group =>   1
Atom  37C    basis set group =>   1
Atom  38H    basis set group =>   2
Atom  39H    basis set group =>   2
Atom  40H    basis set group =>   2
Atom  41H    basis set group =>   2
Atom  42H    basis set group =>   2
Atom  43H    basis set group =>   2
Atom  44H    basis set group =>   2
Atom  45H    basis set group =>   2
Atom  46H    basis set group =>   2
Atom  47H    basis set group =>   2
Atom  48H    basis set group =>   2
Atom  49H    basis set group =>   2
Atom  50H    basis set group =>   2
Atom  51H    basis set group =>   2
Atom  52H    basis set group =>   2
Atom  53H    basis set group =>   2
Atom  54H    basis set group =>   2
Atom  55H    basis set group =>   2
Atom  56H    basis set group =>   2
Atom  57H    basis set group =>   2


           ************************************************************
           *        Program running with 104 parallel MPI-processes   *
           *              working on a common directory               *
           ************************************************************
------------------------------------------------------------------------------
                             ORCA STARTUP CALCULATIONS
                           -- RI-GTO INTEGRALS CHOSEN --
------------------------------------------------------------------------------
------------------------------------------------------------------------------
                   ___                                                        
                  /   \      - P O W E R E D   B Y -                         
                 /     \                                                     
                 |  |  |   _    _      __       _____    __    __             
                 |  |  |  | |  | |    /  \     |  _  \  |  |  /  |          
                  \  \/   | |  | |   /    \    | | | |  |  | /  /          
                 / \  \   | |__| |  /  /\  \   | |_| |  |  |/  /          
                |  |  |   |  __  | /  /__\  \  |    /   |      \           
                |  |  |   | |  | | |   __   |  |    \   |  |\   \          
                \     /   | |  | | |  |  |  |  | |\  \  |  | \   \       
                 \___/    |_|  |_| |__|  |__|  |_| \__\ |__|  \__/        
                                                                              
                      - O R C A' S   B I G   F R I E N D -                    
                                      &                                       
                       - I N T E G R A L  F E E D E R -                       
                                                                              
 v1 FN, 2020, v2 2021, v3 2022-2024                                           
------------------------------------------------------------------------------


----------------------
SHARK INTEGRAL PACKAGE
----------------------

Number of atoms                             ...     58
Number of basis functions                   ...   2766
Number of shells                            ...    846
Maximum angular momentum                    ...      4
Integral batch strategy                     ... SHARK/LIBINT Hybrid
RI-J (if used) integral strategy            ... SPLIT-RIJ (Revised 2003 algorithm where possible)
Printlevel                                  ...      1
Contraction scheme used                     ... SEGMENTED contraction
Prescreening option                         ... SCHWARTZ
   Thresh                                   ... 1.000e-10
   Tcut                                     ... 1.000e-11
   Tpresel                                  ... 1.000e-11 
Coulomb Range Separation                    ... NOT USED
Exchange Range Separation                   ... NOT USED
Multipole approximations                    ... NOT USED
Finite Nucleus Model                        ... NOT USED
CABS basis                                  ... NOT available
Auxiliary Coulomb fitting basis             ... NOT available
Auxiliary J/K fitting basis                 ... AVAILABLE
   # of basis functions in Aux-JK           ...   6478
   # of shells in Aux-JK                    ...   1574
   Maximum angular momentum in Aux-JK       ...      5
Auxiliary Correlation fitting basis         ... AVAILABLE
   # of basis functions in Aux-C            ...   6478
   # of shells in Aux-C                     ...   1574
   Maximum angular momentum in Aux-C        ...      5
Auxiliary 'external' fitting basis          ... NOT available

Checking pre-screening integrals            ... done (  0.0 sec) Dimension = 846
Check shell pair data                       ... done (  0.0 sec)
Shell pair information
Shell pair cut-off parameter TPreSel        ...   1.0e-11
Total number of shell pairs                 ...    358281
Shell pairs after pre-screening             ...    184729
Total number of primitive shell pairs       ...    929805
Primitive shell pairs kept                  ...    317261
          la=0 lb=0:  27936 shell pairs
          la=1 lb=0:  42500 shell pairs
          la=1 lb=1:  15159 shell pairs
          la=2 lb=0:  24782 shell pairs
          la=2 lb=1:  19208 shell pairs
          la=2 lb=2:   5834 shell pairs
          la=3 lb=0:  14532 shell pairs
          la=3 lb=1:  11397 shell pairs
          la=3 lb=2:   6583 shell pairs
          la=3 lb=3:   1926 shell pairs
          la=4 lb=0:   5773 shell pairs
          la=4 lb=1:   4596 shell pairs
          la=4 lb=2:   2660 shell pairs
          la=4 lb=3:   1511 shell pairs
          la=4 lb=4:    332 shell pairs

Calculating one electron integrals          ... done (  1.1 sec)
Calculating RI/JK V-Matrix + Cholesky decomp... done (  1.7 sec)
Calculating RI/C V-Matrix + Cholesky decomp.... done (  1.6 sec)
Calculating Nuclear repulsion               ... done (  0.0 sec) ENN=   3821.559820994306 Eh

Diagonalization of the overlap matrix:
Smallest eigenvalue                        ... 2.151e-07
Time for diagonalization                   ...    1.178 sec
Threshold for overlap eigenvalues          ... 1.000e-07
Number of eigenvalues below threshold      ... 0

IMPORTANT:
Smallest eigenvalue of S below the DiffSThresh (1.000e-06) while
Thresh>1e-12 and/or TCut>1e-13! In order to avoid SCF convergence issues,
Thresh will be set to at least 1e-12 and TCut to at least 1e-13.
This can be turned off by adding %SCF DiffSThresh -1 END to the input.

Time for construction of square roots      ...    0.794 sec
Total time needed                          ...    2.033 sec

-------------------
DFT GRID GENERATION
-------------------

General Integration Accuracy     IntAcc      ... 4.959
Radial Grid Type                 RadialGrid  ... OptM3 with GC (2021)
Angular Grid (max. ang.)         AngularGrid ... 6 (Lebedev-590)
Angular grid pruning method      GridPruning ... 4 (adaptive)
Weight generation scheme         WeightScheme... mBecke (2022)
Basis function cutoff            BFCut       ... 1.0000e-10
Integration weight cutoff        WCut        ... 1.0000e-14
Partially contracted basis set               ... off
Rotationally invariant grid construction     ... off
Angular grids for H and He will be reduced by one unit
Diffuse basis detected: some atoms will have their outermost
                        angular grid increased by 1.

Total number of grid points                  ...   716117
Total number of batches                      ...    11217
Average number of points per batch           ...       63
Average number of grid points per atom       ...    12347
Initializing property integral containers    ... done (  0.0 sec)

SHARK setup successfully completed in  16.3 seconds

Maximum memory used throughout the entire STARTUP-calculation: 365.8 MB


           ************************************************************
           *        Program running with 104 parallel MPI-processes   *
           *              working on a common directory               *
           ************************************************************
-------------------------------------------------------------------------------
                                 ORCA GUESS
                   Start orbitals & Density for SCF / CASSCF
-------------------------------------------------------------------------------

------------
SCF SETTINGS
------------
Hamiltonian:
 Density Functional     Method          .... DFT(GTOs)
 Exchange Functional    Exchange        .... PBE
   PBE kappa parameter   XKappa         ....  0.804000
   PBE mue parameter    XMuePBE         ....  0.219520
 Correlation Functional Correlation     .... P86
 LDA part of GGA corr.  LDAOpt          .... VWN-5
 Gradients option       PostSCFGGA      .... off
 Hybrid DFT is turned on
   Fraction HF Exchange ScalHFX         ....  0.690000
   Scaling of DF-GGA-X  ScalDFX         ....  0.310000
   Scaling of DF-GGA-C  ScalDFC         ....  0.403800
   Scaling of DF-LDA-C  ScalLDAC        ....  0.403800
   Perturbative correction              ....  1.000000
 RI-approximation to the Coulomb term is turned on
   Number of AuxJK basis functions      .... 6478
   RI-JK (J+K treated both via RI)      .... on


General Settings:
 Integral files         IntName         .... compas3D_hc_c38h20_0pent_1_qz_riri
 Hartree-Fock type      HFTyp           .... RHF
 Total Charge           Charge          ....    0
 Multiplicity           Mult            ....    1
 Number of Electrons    NEL             ....  248
 Basis Dimension        Dim             .... 2766
 Nuclear Repulsion      ENuc            ....   3821.5598209943 Eh

Convergence Acceleration:
 AO-DIIS                CNVDIIS         .... on
   Start iteration      DIISMaxIt       ....    12
   Startup error        DIISStart       ....  0.200000
   # of expansion vecs  DIISMaxEq       ....     5
   Bias factor          DIISBfac        ....   1.050
   Max. coefficient     DIISMaxC        ....  10.000
 MO-DIIS                CNVKDIIS        .... off
 Trust-Rad. Augm. Hess. CNVTRAH         .... auto
   Auto Start mean grad. ratio tolernc. ....  1.125000
   Auto Start start iteration           ....    50
   Auto Start num. interpolation iter.  ....    10
   Max. Number of Micro iterations      ....    24
   Max. Number of Macro iterations      .... Maxiter - #DIIS iter
   Number of Davidson start vectors     ....     2
   Converg. threshold    (grad. norm)   ....   5.000e-05
   Grad. Scal. Fac. for Micro threshold ....   0.100
   Minimum threshold for Micro iter.    ....   1.000e-02
   NR start threshold (gradient norm)   ....   1.000e-04
   Initial trust radius                 ....   0.400
   Minimum AH scaling param. (alpha)    ....   1.000
   Maximum AH scaling param. (alpha)    .... 1000.000
   Quad. conv. algorithm                .... NR
   White noise on init. David. guess    .... on
   Maximum white noise                  ....   0.010
   Pseudo random numbers                .... off
   Inactive MOs                         .... canonical
   Orbital update algorithm             .... Taylor
   Preconditioner                       .... Diag
   Full preconditioner red. dimension   ....   250
 SOSCF                  CNVSOSCF        .... on
   Start iteration      SOSCFMaxIt      ....   150
   Startup grad/error   SOSCFStart      ....  0.003300
   Hessian update       SOSCFHessUp     .... L-BFGS
 Level Shifting         CNVShift        .... on
   Level shift para.    LevelShift      ....    0.2500
   Turn off err/grad.   ShiftErr        ....    0.0010
 Zerner damping         CNVZerner       .... off
 Static damping         CNVDamp         .... on
   Fraction old density DampFac         ....    0.7000
   Max. Damping (<1)    DampMax         ....    0.9800
   Min. Damping (>=0)   DampMin         ....    0.0000
   Turn off err/grad.   DampErr         ....    0.1000

SCF Procedure:
 Maximum # iterations   MaxIter         ....   125
 SCF integral mode      SCFMode         .... Direct
   Integral package                     .... SHARK and LIBINT hybrid scheme
 Reset frequency        DirectResetFreq ....    20
 Integral Threshold     Thresh          ....  1.000e-12 Eh
 Primitive CutOff       TCut            ....  1.000e-13 Eh

Convergence Tolerance:
 Convergence Check Mode ConvCheckMode   .... Total+1el-Energy
 Convergence forced     ConvForced      .... 0
 Energy Change          TolE            ....  1.000e-06 Eh
 1-El. energy change                    ....  1.000e-03 Eh
 Orbital Gradient       TolG            ....  5.000e-05
 Orbital Rotation angle TolX            ....  5.000e-05
 DIIS Error             TolErr          ....  1.000e-06

------------------------------
INITIAL GUESS: MODEL POTENTIAL
------------------------------
Loading Hartree-Fock densities                     ... done
Calculating cut-offs                               ... done
Initializing the effective Hamiltonian             ... done
Setting up the integral package (SHARK)            ... done
Starting the Coulomb interaction                   ... done (   0.8 sec)
Making the grid                                    ... done (   0.5 sec)
Mapping shells                                     ... done
Starting the XC term evaluation                    ... done (   0.2 sec)
  promolecular density results
     # of electrons  =    248.006174757
     EX              =   -200.418669748
     EC              =      0.304785518
     EX+EC           =   -200.113884230
Transforming the Hamiltonian                       ... done (   0.6 sec)
Diagonalizing the Hamiltonian                      ... done (   0.8 sec)
Back transforming the eigenvectors                 ... done (   0.8 sec)
Now organizing SCF variables                       ... done
                      ------------------
                      INITIAL GUESS DONE (   4.8 sec)
                      ------------------
             **** ENERGY FILE WAS UPDATED (compas3D_hc_c38h20_0pent_1_qz_riri.en.tmp) ****
Finished Guess after  23.1 sec
Maximum memory used throughout the entire GUESS-calculation: 422.4 MB


           ************************************************************
           *        Program running with 104 parallel MPI-processes   *
           *              working on a common directory               *
           ************************************************************

-------------------------------------------------------------------------------------------
                                      ORCA LEAN-SCF
                              memory conserving SCF solver
-------------------------------------------------------------------------------------------


Warning (ORCA_SCF): Not enough memory available!
                    Memory available for SCF calculation:       1024.0 MB
                    Memory needed (estimated)           :       1341.3 MB


----------------------------------------D-I-I-S--------------------------------------------
Iteration    Energy (Eh)           Delta-E    RMSDP     MaxDP     DIISErr   Damp  Time(sec)
-------------------------------------------------------------------------------------------
    1    -1453.9120412297675102     0.00e+00  3.67e-04  6.38e-02  1.46e-01  0.700  49.6
    2    -1453.6595306953900035     2.53e-01  5.40e-04  1.39e-01  1.30e-01  0.700  53.2
                               ***Turning on AO-DIIS***
    3    -1453.8200495029554986    -1.61e-01  3.00e-04  8.33e-02  7.69e-02  0.700  50.5
    4    -1454.1352150435009207    -3.15e-01  6.72e-04  1.59e-01  4.09e-02  0.000  49.4
    5    -1454.6417784956761352    -5.07e-01  2.15e-04  7.11e-02  3.31e-02  0.000  51.0
    6    -1454.6633359067777747    -2.16e-02  7.62e-05  1.07e-02  1.56e-02  0.000  49.8
    7    -1454.6686925558228722    -5.36e-03  5.18e-05  1.22e-02  5.13e-03  0.000  50.9
                              *** Initializing SOSCF ***
---------------------------------------S-O-S-C-F--------------------------------------
Iteration    Energy (Eh)           Delta-E    RMSDP     MaxDP     MaxGrad    Time(sec)
--------------------------------------------------------------------------------------
    8    -1454.6693388282760679    -6.46e-04  4.54e-05  1.25e-02  1.20e-03    57.4
    9    -1454.6693985160686680    -5.97e-05  2.41e-05  6.31e-03  1.64e-04    48.3
   10    -1454.6694066316490535    -8.12e-06  2.96e-05  8.74e-03  1.76e-04    47.9
   11    -1454.6694087937335098    -2.16e-06  1.04e-05  2.66e-03  9.13e-05    49.8
   12    -1454.6694096612031899    -8.67e-07  4.27e-06  1.16e-03  1.92e-05    47.9
                 **** Energy Check signals convergence ****

               *****************************************************
               *                     SUCCESS                       *
               *           SCF CONVERGED AFTER  12 CYCLES          *
               *****************************************************

             **** ENERGY FILE WAS UPDATED (compas3D_hc_c38h20_0pent_1_qz_riri.en.tmp) ****

----------------
TOTAL SCF ENERGY
----------------

Total Energy       :      -1454.66940966120319 Eh          -39583.56703 eV

Components:
Nuclear Repulsion  :       3821.55982099430594 Eh          103989.92948 eV
Electronic Energy  :      -5276.22923065550913 Eh         -143573.49650 eV
One Electron Energy:      -9574.58797924257669 Eh         -260537.78440 eV
Two Electron Energy:       4298.35874858706757 Eh          116964.28790 eV

Virial components:
Potential Energy   :      -2905.05975200079865 Eh          -79050.69471 eV
Kinetic Energy     :       1450.39034233959524 Eh           39467.12769 eV
Virial Ratio       :          2.00295028668952

DFT components:
N(Alpha)           :      124.000041268390 electrons
N(Beta)            :      124.000041268390 electrons
N(Total)           :      248.000082536779 electrons
E(X)               :      -63.133390646957 Eh       
E(C)               :       -3.707366323691 Eh       
E(XC)              :      -66.840756970648 Eh       

---------------
SCF CONVERGENCE
---------------

  Last Energy change         ...    8.6747e-07  Tolerance :   1.0000e-06
  Last MAX-Density change    ...    1.1645e-03  Tolerance :   1.0000e-05
  Last RMS-Density change    ...    4.2731e-06  Tolerance :   1.0000e-06
  Last DIIS Error            ...    1.1984e-03  Tolerance :   1.0000e-06
  Last Orbital Gradient      ...    1.9239e-05  Tolerance :   5.0000e-05
  Last Orbital Rotation      ...    6.4419e-05  Tolerance :   5.0000e-05


----------------
ORBITAL ENERGIES
----------------

  NO   OCC          E(Eh)            E(eV) 
   0   2.0000     -10.844101      -295.0830 
   1   2.0000     -10.843363      -295.0629 
   2   2.0000     -10.842825      -295.0483 
   3   2.0000     -10.840893      -294.9957 
   4   2.0000     -10.839677      -294.9626 
   5   2.0000     -10.838719      -294.9365 
   6   2.0000     -10.838085      -294.9193 
   7   2.0000     -10.837118      -294.8930 
   8   2.0000     -10.836460      -294.8751 
   9   2.0000     -10.835198      -294.8407 
  10   2.0000     -10.834520      -294.8223 
  11   2.0000     -10.834421      -294.8196 
  12   2.0000     -10.834350      -294.8177 
  13   2.0000     -10.833628      -294.7980 
  14   2.0000     -10.833507      -294.7947 
  15   2.0000     -10.832701      -294.7728 
  16   2.0000     -10.832391      -294.7644 
  17   2.0000     -10.831272      -294.7339 
  18   2.0000     -10.828469      -294.6576 
  19   2.0000     -10.826850      -294.6136 
  20   2.0000     -10.826512      -294.6044 
  21   2.0000     -10.826180      -294.5953 
  22   2.0000     -10.826117      -294.5936 
  23   2.0000     -10.826080      -294.5926 
  24   2.0000     -10.826057      -294.5920 
  25   2.0000     -10.825677      -294.5816 
  26   2.0000     -10.825593      -294.5794 
  27   2.0000     -10.825156      -294.5675 
  28   2.0000     -10.825071      -294.5652 
  29   2.0000     -10.824721      -294.5556 
  30   2.0000     -10.824486      -294.5492 
  31   2.0000     -10.824314      -294.5446 
  32   2.0000     -10.824240      -294.5426 
  33   2.0000     -10.821984      -294.4812 
  34   2.0000     -10.821868      -294.4780 
  35   2.0000     -10.820972      -294.4536 
  36   2.0000     -10.819915      -294.4248 
  37   2.0000     -10.818143      -294.3766 
  38   2.0000      -1.098847       -29.9012 
  39   2.0000      -1.086783       -29.5729 
  40   2.0000      -1.064874       -28.9767 
  41   2.0000      -1.046806       -28.4850 
  42   2.0000      -1.040037       -28.3009 
  43   2.0000      -1.015938       -27.6451 
  44   2.0000      -1.004076       -27.3223 
  45   2.0000      -0.991148       -26.9705 
  46   2.0000      -0.979470       -26.6527 
  47   2.0000      -0.965551       -26.2740 
  48   2.0000      -0.947118       -25.7724 
  49   2.0000      -0.931285       -25.3416 
  50   2.0000      -0.919141       -25.0111 
  51   2.0000      -0.914883       -24.8952 
  52   2.0000      -0.906743       -24.6737 
  53   2.0000      -0.902233       -24.5510 
  54   2.0000      -0.889247       -24.1976 
  55   2.0000      -0.876898       -23.8616 
  56   2.0000      -0.852920       -23.2091 
  57   2.0000      -0.804885       -21.9020 
  58   2.0000      -0.786617       -21.4049 
  59   2.0000      -0.774779       -21.0828 
  60   2.0000      -0.773656       -21.0523 
  61   2.0000      -0.770364       -20.9627 
  62   2.0000      -0.766217       -20.8498 
  63   2.0000      -0.755756       -20.5652 
  64   2.0000      -0.747253       -20.3338 
  65   2.0000      -0.726620       -19.7723 
  66   2.0000      -0.695162       -18.9163 
  67   2.0000      -0.682676       -18.5766 
  68   2.0000      -0.674487       -18.3537 
  69   2.0000      -0.657807       -17.8998 
  70   2.0000      -0.653472       -17.7819 
  71   2.0000      -0.646973       -17.6050 
  72   2.0000      -0.632549       -17.2125 
  73   2.0000      -0.625815       -17.0293 
  74   2.0000      -0.618965       -16.8429 
  75   2.0000      -0.606655       -16.5079 
  76   2.0000      -0.596676       -16.2364 
  77   2.0000      -0.589161       -16.0319 
  78   2.0000      -0.581560       -15.8251 
  79   2.0000      -0.578074       -15.7302 
  80   2.0000      -0.568545       -15.4709 
  81   2.0000      -0.561967       -15.2919 
  82   2.0000      -0.558879       -15.2079 
  83   2.0000      -0.543925       -14.8010 
  84   2.0000      -0.541839       -14.7442 
  85   2.0000      -0.533596       -14.5199 
  86   2.0000      -0.531194       -14.4545 
  87   2.0000      -0.525714       -14.3054 
  88   2.0000      -0.524978       -14.2854 
  89   2.0000      -0.520348       -14.1594 
  90   2.0000      -0.516306       -14.0494 
  91   2.0000      -0.515282       -14.0215 
  92   2.0000      -0.506992       -13.7960 
  93   2.0000      -0.502558       -13.6753 
  94   2.0000      -0.500180       -13.6106 
  95   2.0000      -0.490688       -13.3523 
  96   2.0000      -0.482891       -13.1401 
  97   2.0000      -0.479985       -13.0611 
  98   2.0000      -0.473156       -12.8752 
  99   2.0000      -0.470840       -12.8122 
 100   2.0000      -0.463659       -12.6168 
 101   2.0000      -0.460215       -12.5231 
 102   2.0000      -0.458026       -12.4635 
 103   2.0000      -0.454594       -12.3701 
 104   2.0000      -0.447951       -12.1894 
 105   2.0000      -0.446238       -12.1427 
 106   2.0000      -0.428179       -11.6513 
 107   2.0000      -0.422704       -11.5024 
 108   2.0000      -0.416250       -11.3267 
 109   2.0000      -0.411311       -11.1923 
 110   2.0000      -0.406004       -11.0479 
 111   2.0000      -0.398047       -10.8314 
 112   2.0000      -0.389536       -10.5998 
 113   2.0000      -0.375177       -10.2091 
 114   2.0000      -0.360968        -9.8224 
 115   2.0000      -0.339985        -9.2515 
 116   2.0000      -0.325009        -8.8440 
 117   2.0000      -0.308156        -8.3853 
 118   2.0000      -0.299425        -8.1478 
 119   2.0000      -0.295138        -8.0311 
 120   2.0000      -0.289808        -7.8861 
 121   2.0000      -0.267444        -7.2775 
 122   2.0000      -0.242689        -6.6039 
 123   2.0000      -0.216190        -5.8828 
 124   0.0000      -0.026791        -0.7290 
 125   0.0000       0.006233         0.1696 
 126   0.0000       0.021575         0.5871 
 127   0.0000       0.038936         1.0595 
 128   0.0000       0.046202         1.2572 
 129   0.0000       0.056762         1.5446 
 130   0.0000       0.063186         1.7194 
 131   0.0000       0.069790         1.8991 
 132   0.0000       0.074500         2.0272 
 133   0.0000       0.075299         2.0490 
 134   0.0000       0.077337         2.1045 
*Only the first 10 virtual orbitals were printed.
-------
TIMINGS
-------

Total SCF time: 0 days 0 hours 10 min 26 sec 

Total time                  ....     626.977 sec
Sum of individual times     ....     626.320 sec  ( 99.9%)

SCF preparation             ....      17.065 sec  (  2.7%)
Fock matrix formation       ....     551.693 sec  ( 88.0%)
  Startup                   ....       3.672 sec  (  0.7% of F)
  RI-JK                     ....     511.349 sec  ( 92.7% of F)
  XC integration            ....      27.506 sec  (  5.0% of F)
    XC Preparation          ....       0.000 sec  (  0.0% of XC)
    Basis function eval.    ....       1.781 sec  (  6.5% of XC)
    Density eval.           ....       5.970 sec  ( 21.7% of XC)
    XC-Functional eval.     ....       0.043 sec  (  0.2% of XC)
    XC-Potential eval.      ....       7.822 sec  ( 28.4% of XC)
Diagonalization             ....       0.000 sec  (  0.0%)
Density matrix formation    ....       8.386 sec  (  1.3%)
Total Energy calculation    ....       2.485 sec  (  0.4%)
Population analysis         ....       0.000 sec  (  0.0%)
Orbital Transformation      ....       5.697 sec  (  0.9%)
Orbital Orthonormalization  ....       0.000 sec  (  0.0%)
DIIS solution               ....      31.032 sec  (  4.9%)
SOSCF solution              ....       9.723 sec  (  1.6%)
Finished LeanSCF after 627.7 sec

Maximum memory used throughout the entire LEANSCF-calculation: 1414.8 MB


           ************************************************************
           *        Program running with 104 parallel MPI-processes   *
           *              working on a common directory               *
           ************************************************************

------------------------------------------------------------------------------
                                ORCA  MP2 
------------------------------------------------------------------------------


-------------
RI-MP2 ENERGY
-------------
Dimension of the orbital basis            ... 2766
Dimension of the AuxC basis               ... 6478
Memory devoted to MP2                     ... 4096 MB   
Data format for matrix containers         ... DOUBLE
Compression type for matrix containers    ... UNCOMPRESSED
Scaling for aa/bb pairs                   ...   5.710e-02
Scaling for ab pairs                      ...   5.979e-01
Overall scaling of the MP2 energy         ...   1.000e+00

-----------------------
SHARK RI TRANSFORMATION
-----------------------

Number of basis functions                ...   2766
Number of aux functions                  ...   6478
Number of operators                      ...      1
Generation of IJK                        ... NO
Generation of IAK                        ... YES
Generation of ABK                        ... NO
Orbital Range Operator  0:    0- 123 to  124-2765

Aux basis identifier                     ...   AUXC
Contraction scheme used                  ... SEGMENTED
Do orthogonalization                     ... YES
All operator combinations                ... NO
Transpose (ia|K)                         ... NO
Integral generator used                  ... LIBINT
Starting integral generation + trafo... 
Half trafo (segmented) done. Total time = 19.0 sec. integrals=  3.8 sec trafo= 14.0 sec
Integral generation and half transformation done ( 19.0 sec)

Reading or making V^(-1/2)          ... done (  0.7 sec)
Sorting IAK integrals               ... done ( 24.3 sec)

SHARK RI integral transformation done. Total time = 44.3 sec.

Opening buffers                              ... done

Starting loop over batches of integrals:

Operator 0  - window                       ... (  0-123)x(124-2765)
Operator 0  - Memory available             ...  4096 MB
Operator 0  - Memory needed per MO         ... 130.6 MB
Operator 0  - Number of orbitals per batch ... 2
Operator 0  - Number of batches            ... 1

OPERATOR  0   PASS   0:  MOs     0 ...    1 +    2 ...    3 +    4 ...    5 +    6 ...    7
                            +    8 ...    9 +   10 ...   11 +   12 ...   13 +   14 ...   15
                            +   16 ...   17 +   18 ...   19 +   20 ...   21 +   22 ...   23
                            +   24 ...   25 +   26 ...   27 +   28 ...   29 +   30 ...   31
                            +   32 ...   33 +   34 ...   35 +   36 ...   37 +   38 ...   39
                            +   40 ...   41 +   42 ...   43 +   44 ...   45 +   46 ...   47
                            +   48 ...   49 +   50 ...   51 +   52 ...   53 +   54 ...   55
                            +   56 ...   57 +   58 ...   59 +   60 ...   61 +   62 ...   63
                            +   64 ...   65 +   66 ...   67 +   68 ...   69 +   70 ...   71
                            +   72 ...   73 +   74 ...   75 +   76 ...   77 +   78 ...   79
                            +   80 ...   81 +   82 ...   83 +   84 ...   85 +   86 ...   87
                            +   88 ...   89 +   90 ...   91 +   92 ...   93 +   94 ...   95
                            +   96 ...   97 +   98 ...   99 +  100 ...  101 +  102 ...  103
                            +  104 ...  105 +  106 ...  107 +  108 ...  109 +  110 ...  111
                            +  112 ...  113 +  114 ...  115 +  116 ...  117 +  118 ...  119
                            +  120 ...  121 +  122 ...  123
  Reading integrals       ... ok
Time spent in pair loops =   403.645 sec

-----------------------------------------------
 RI-MP2 CORRELATION ENERGY:     -3.748060196 Eh
-----------------------------------------------


-------
TIMINGS
-------

Total time                :  454.359 sec
Integral trafo            :   44.752 sec (  9.8%)
I/O of integrals          :    0.331 sec (  0.1%)
K(i,j) operators          :    4.774 sec (  1.1%)
T(i,j) pair energies      :    0.519 sec (  0.1%)
V**(-1/2)                 :    5.961 sec (  1.3%)


---------------------------------------
MP2 TOTAL ENERGY:    -1458.417469858 Eh
---------------------------------------

Maximum memory used throughout the entire MP2-calculation: 1039.8 MB


-------------------------------------------------------------------------------
                          DFT DISPERSION CORRECTION                            
                                                                               
                                DFTD4 V3.4.0                                   
-------------------------------------------------------------------------------
The REV-DSD-PBEP86-2021 functional is recognized
A user input s6-coefficient scaling factor has been recognized
A user input a1-coefficient scaling factor has been recognized
A user input s8-coefficient scaling factor has been recognized
A user input a2-coefficient scaling factor has been recognized
A user input s9-coefficient scaling factor has been recognized
Active option DFTDOPT                   ...         5   

-------------------------   ----------------
Dispersion correction           -0.064599654
-------------------------   ----------------


-------------------------   --------------------
FINAL SINGLE POINT ENERGY     -1458.482069511958
-------------------------   --------------------



           ************************************************************
           *        Program running with 104 parallel MPI-processes   *
           *              working on a common directory               *
           ************************************************************

------------------------------------------------------------------------------
                              ORCA PROPERTY CALCULATIONS
------------------------------------------------------------------------------

GBWName                                 ... compas3D_hc_c38h20_0pent_1_qz_riri.gbw
Number of atoms                         ...     58
Number of basis functions               ...   2766
Max core memory                         ...   1024 MB

Electric properties:
Dipole moment                           ... YES
Quadrupole moment                       ...  NO
Static polarizability (Dipole/Dipole)   ...  NO
Static polarizability (Dipole/Quad.)    ...  NO
Static polarizability (Quad./Quad.)     ...  NO
Static polarizability (Velocity)        ...  NO

Atomic electric properties:
Dipole moment                           ...  NO
Quadrupole moment                       ...  NO
Static polarizability                   ...  NO

Choice of electric origin               ... Center of mass
Position of electric origin             ...     0.097334     0.079399    -0.020374

General magnetic properties:
Magnetizability                         ...  NO

EPR properties:
g-Tensor (aka g-matrix)                 ...  NO
Zero-Field splitting spin-orbit         ...  NO
Zero-field splitting spin-spin          ...  NO
Hyperfine couplings                     ...  NO (   0 nuclei)
Quadrupole couplings                    ...  NO (   0 nuclei)
Contact density                         ...  NO (   0 nuclei)

NMR properties:
Chemical shifts                         ...  NO (   0 nuclei)
Spin-rotation constants                 ...  NO (   0 nuclei)
Spin-spin couplings                     ...  NO (   0 nuclei,    0 pairs)

Choice of magnetic origin               ... GIAO
Position of magnetic origin             ...     0.000000     0.000000     0.000000

Properties with geometric perturbations:
SCF Hessian                             ...  NO
IR spectrum                             ...  NO
VCD spectrum                            ...  NO
X-ray spectroscopy properties:
SCF XES/XAS/RIXS spectra                ...  NO


-------------
DIPOLE MOMENT
-------------

Method             : SCF
Type of density    : Electron Density
Multiplicity       :   1
Irrep              :   0
Energy             : -1454.6694096612031899 Eh
Relativity type    : 
Basis              : AO
                                X                 Y                 Z
Electronic contribution:      2.948544795       2.454351212      -0.597838405
Nuclear contribution   :     -3.063559332      -2.498805694       0.642454410
                        -----------------------------------------
Total Dipole Moment    :     -0.115014537      -0.044454482       0.044616005
                        -----------------------------------------
Magnitude (a.u.)       :      0.131130212
Magnitude (Debye)      :      0.333306511



--------------------
Rotational spectrum 
--------------------
 
Rotational constants in cm-1:             0.006225             0.002974             0.002208 
Rotational constants in MHz :           186.613492            89.155250            66.183446 

Dipole components along the rotational axes: 
x,y,z [a.u.] :     0.045306    -0.122160     0.014809 
x,y,z [Debye]:     0.115160    -0.310507     0.037642 

 

Dipole moment calculation done in   0.5 sec 

Maximum memory used throughout the entire PROP-calculation: 473.0 MB

--------------------------------
SUGGESTED CITATIONS FOR THIS RUN
--------------------------------

Below you find a list of papers that are relevant to this ORCA run
We neither can nor want to force you to cite these papers, but we appreciate if you do
You receive ORCA, which is the product of decades of hard work by many enthusiastic individuals, for free
The only thing we kindly ask in return is that you cite our papers,
We deeply appreciate it, if you show your appreciation for ORCA by not just citing the generic ORCA reference.

Please note that relegating all ORCA citations to the supporting information does *not* help us.
SI sections are not indexed - citations you put there will not count into any citation statistics
But we need these citations in order to attract the funding resources that allow us to do what we are doing

Therefore, if you are a happy ORCA user, please consider citing a few of the papers listed below in the main body of your paper

In addition to the list printed below, the program has created the file compas3D_hc_c38h20_0pent_1_qz_riri.bibtex that contains the list in bibtex format
You can import this file easily into all common literature databanks and citation aid programs


List of essential papers. We consider these as the minimum necessary citations

  1. Neese,F.
     Software update: the ORCA program system, version 5.0
     WIRES Comput. Molec. Sci., 2022 12(1)e1606
     doi.org/10.1002/wcms.1606

List of papers to cite with high priority. The work reported in these papers was absolutely
necessary for this run to complete.
Our perspective: the developers of density functionals and basis sets usually get cited in chemistry papers
Good! But without the algorithms to do something with them, the functionals or basis sets would not do anything.
Hence, in our opinion, the algorithm design and method developments papers are equally worthy of getting cited

  1. Neese,F.
     An improvement of the resolution of the identity approximation for the formation of the Coulomb matrix
     J. Comp. Chem., 2003 24(14)1740-1747
     doi.org/10.1002/jcc.10318
  2. Kossmann,S.; Neese,F.
     Comparison of two efficient approximate Hartee-Fock approaches
     Chem. Phys. Lett., 2009 481 240-243
     doi.org/10.1016/j.cplett.2009.09.073
  3. Neese,F.
     The SHARK Integral Generation and Digestion System
     J. Comp. Chem., 2022  1-16
     doi.org/10.1002/jcc.26942
  4. Caldeweyher,E.; Bannwarth,C.; Grimme,S.
     Extension of the D3 dispersion coefficient model
     J. Chem. Phys., 2017 147 034112
     doi.org/10.1063/1.4993215
  5. Caldeweyher,E.; Ehlert,S.; Hansen,A.; Neugebauer,H.; Spicher,S.; Bannwarth,C.; Grimme,S.
     A generally applicable atomic-charge dependent London dispersion correction
     J. Chem. Phys., 2019 150 154122
     doi.org/10.1063/1.5090222
  6. Caldeweyher,E.; Mewes,J.; Ehlert,S.; Grimme,S.
     Extension and evaluation of the D4 London-dispersion model for periodic systems
     Phys. Chem. Chem. Phys., 2020 22(16)8499-8512
     doi.org/10.1039/D0CP00502A
  7. Wittmann,L.; Gordiy,I.; Friede,M.; Helmich-Paris,B.; Grimme,S.; Hansen,A.; Bursch,M.
     Extension of the D3 and D4 London Dispersion Corrections to the full Actinides Series
     Phys. Chem. Chem. Phys., 2024 26(32)21379-21394
     doi.org/https://doi.org/10.1039/D4CP01514B 

List of suggested additional citations. These are papers that are important in the 'surrounding' of 
of this run, or papers that preceded the highly important papers. If you like your results we are grateful for a citation.

  1. Neese,F.
     The ORCA program system
     WIRES Comput. Molec. Sci., 2012 2(1)73-78
     doi.org/10.1002/wcms.81
  2. Neese,F.
     Software update: the ORCA program system, version 4.0
     WIRES Comput. Molec. Sci., 2018 8(1)1-6
     doi.org/10.1002/wcms.1327
  3. Neese,F.; Wennmohs,F.; Becker,U.; Riplinger,C.
     The ORCA quantum chemistry program package
     J. Chem. Phys., 2020 152 Art. No. L224108
     doi.org/10.1063/5.0004608

List of optional additional citations

  1. Neese,F.
     Approximate second-order SCF convergence for spin unrestricted wavefunctions
     Chem. Phys. Lett., 2000 325(1-3)93-98
     doi.org/10.1016/s0009-2614(00)00662-x

Timings for individual modules:

Sum of individual times          ...     1179.586 sec (=  19.660 min)
Startup calculation              ...       33.217 sec (=   0.554 min)   2.8 %
SCF iterations                   ...      654.207 sec (=  10.903 min)  55.5 %
Property calculations            ...       18.629 sec (=   0.310 min)   1.6 %
MP2 module                       ...      473.533 sec (=   7.892 min)  40.1 %
                             ****ORCA TERMINATED NORMALLY****
TOTAL RUN TIME: 0 days 0 hours 19 minutes 56 seconds 742 msec
