
                                 *****************
                                 * O   R   C   A *
                                 *****************

                                            #,                                       
                                            ###                                      
                                            ####                                     
                                            #####                                    
                                            ######                                   
                                           ########,                                 
                                     ,,################,,,,,                         
                               ,,#################################,,                 
                          ,,##########################################,,             
                       ,#########################################, ''#####,          
                    ,#############################################,,   '####,        
                  ,##################################################,,,,####,       
                ,###########''''           ''''###############################       
              ,#####''   ,,,,##########,,,,          '''####'''          '####       
            ,##' ,,,,###########################,,,                        '##       
           ' ,,###''''                  '''############,,,                           
         ,,##''                                '''############,,,,        ,,,,,,###''
      ,#''                                            '''#######################'''  
     '                                                          ''''####''''         
             ,#######,   #######,   ,#######,      ##                                
            ,#'     '#,  ##    ##  ,#'     '#,    #''#        ,####,   ,####,        
            ##       ##  ##   ,#'  ##            #'  '#       #'       #'  '#        
            ##       ##  #######   ##           ,######,      #####,   #    #        
            '#,     ,#'  ##    ##  '#,     ,#' ,#      #,     #,   #   #,  ,#        
             '#######'   ##     ##  '#######'  #'      '#     '####' # '####'        



                #########################################################
                #                        -***-                          #
                #          Department of theory and spectroscopy        #
                #                                                       #
                #                      Frank Neese                      #
                #                                                       #
                #     Directorship, Architecture, Infrastructure        #
                #                    SHARK, DRIVERS                     #
                #        Core code/Algorithms in most modules           #
                #                                                       #
                #        Max Planck Institute fuer Kohlenforschung      #
                #                Kaiser Wilhelm Platz 1                 #
                #                 D-45470 Muelheim/Ruhr                 #
                #                      Germany                          #
                #                                                       #
                #                  All rights reserved                  #
                #                        -***-                          #
                #########################################################


                         Program Version 6.0.1  -  RELEASE   -


 With contributions from (in alphabetic order):
[Max-Planck-Institut fuer Kohlenforschung]                               
  Daniel Aravena         : Magnetic Suceptibility                        
  Michael Atanasov       : Ab Initio Ligand Field Theory (pilot matlab implementation)
  Alexander A. Auer      : GIAO ZORA, VPT2 properties, NMR spectrum      
  Ute Becker             : All parallelization in ORCA, NUMFREQ, NUMCALC 
  Giovanni Bistoni       : ED, misc. LED, open-shell LED, HFLD           
  Martin Brehm           : Molecular dynamics                            
  Dmytro Bykov           : pre 5.0 version of the SCF Hessian            
  Marcos Casanova-Páez   : Triplet and SCS-CIS(D). UHF-(DLPNO)-IP/EA/STEOM-CCSD. UHF-CVS-IP/STEOM-CCSD   
  Vijay G. Chilkuri      : MRCI spin determinant printing, contributions to CSF-ICE 
  Pauline Colinet        : FMM embedding                                 
  Dipayan Datta          : RHF DLPNO-CCSD density                        
  Achintya Kumar Dutta   : EOM-CC, STEOM-CC                              
  Nicolas Foglia         : Exact transition moments, OPA infrastructure, MCD improvements    
  Dmitry Ganyushin       : Spin-Orbit,Spin-Spin,Magnetic field MRCI      
  Miquel Garcia-Rates    : C-PCM and meta-GGA Hessian, CCSD/C-PCM, Gaussian charge scheme 
  Tiago L. C. Gouveia    : GS-ROHF, GS-ROCIS                             
  Yang Guo               : DLPNO-NEVPT2, F12-NEVPT2, CIM, IAO-localization        
  Andreas Hansen         : Spin unrestricted coupled pair/coupled cluster methods 
  Ingolf Harden          : AUTO-CI MPn and infrastructure                
  Benjamin Helmich-Paris : MC-RPA, TRAH-(SCF,CASSCF), AVAS, COSX integrals, SCF dyn. polar. 
  Lee Huntington         : MR-EOM, pCC                                   
  Robert Izsak           : Overlap fitted RIJCOSX, COSX-SCS-MP3, EOM     
  Riya Kayal             : Wick's Theorem for AUTO-CI, AUTO-CI UHF-CCSDT 
  Emily Kempfer          : AUTO-CI, RHF CISDT and CCSDT                  
  Christian Kollmar      : KDIIS, OOCD, Brueckner-CCSD(T), CCSD density, CASPT2, CASPT2-K, improved NEVPT2 
  Axel Koslowski         : Symmetry handling                             
  Simone Kossmann        : meta-GGA functionals, TD-DFT gradient, OOMP2, (MP2 Hessian; deprecated post 5.0) 
  Lucas Lang             : DCDCAS                                        
  Marvin Lechner         : AUTO-CI (C++ implementation), FIC-MRCC        
  Spencer Leger          : CASSCF response                               
  Dagmar Lenk            : GEPOL surface, SMD, ORCA-2-JSON               
  Dimitrios Liakos       : Extrapolation schemes; Compound Job, initial MDCI parallelization 
  Dimitrios Manganas     : Further ROCIS development; embedding schemes. LFT, Crystal Embedding 
  Dimitrios Pantazis     : SARC Basis sets                               
  Anastasios Papadopoulos: AUTO-CI, single reference methods and gradients 
  Taras Petrenko         : pre 6.0 DFT Hessian and TD-DFT gradient, (ASA, deprecated), ECA, 1-Electron XAS/XES, NRVS 
  Peter Pinski           : DLPNO-MP2, DLPNO-MP2 Gradient                 
  Christoph Reimann      : Effective Core Potentials                     
  Marius Retegan         : Local ZFS, SOC                                
  Christoph Riplinger    : Optimizer, TS searches, QM/MM, DLPNO-CCSD(T), (RO)-DLPNO pert. Triples 
  Michael Roemelt        : Original ROCIS implementation                 
  Masaaki Saitow         : Open-shell DLPNO-CCSD energy and density      
  Barbara Sandhoefer     : DKH picture change effects                    
  Kantharuban Sivalingam : CASSCF convergence/infrastructure, NEVPT2 and variants, FIC-MRCI 
  Bernardo de Souza      : ESD, SOC TD-DFT                               
  Georgi L. Stoychev     : AutoAux, RI-MP2 NMR, DLPNO-MP2 response, X2C  
  Van Anh Tran           : RI-MP2 g-tensors                              
  Willem Van den Heuvel  : Paramagnetic NMR                              
  Zikuan Wang            : NOTCH, Electric field optimization            
  Frank Wennmohs         : Technical directorship and infrastructure     
  Hang Xu                : AUTO-CI-Response properties                   
                                                                         
[FACCTs GmbH]                                                            
  Markus Bursch, Miquel Garcia-Rates, Christoph Riplinger, Bernardo de Souza, Georgi L. Stoychev 
                                                                 
  APM, Basis sets (HGBS, AHGBS, def-TZVP (Ac-Lr), def2-XVPD (La-Lu)), CI-OPT, improved COSX, DLPNO-Multilevel,           
  DOCKER, DRACO, updates on ESD, GOAT, IRC, LR-CPCM, MBIS, meta-GGA TD-DFT gradient, ML-optimized integration grids, 
  MM, NACMEs, nearIR, NEB, NEB-TS, NL-DFT gradient (VV10), 2- and 3-layer-ONIOM, interface openCOSMO-RS, QMMM,   
  Crystal-QMMM, SF, symmetry and pop. for TD-DFT, r2SCAN hybrids, SOLVATOR                                   
                                                                         
[Other institutions]                                                     
  V. Asgeirsson          : NEB                                           
  Christoph Bannwarth    : sTDA-DFT, sTD-DFT, PBEh-3c, B97-3c, D3        
  Sebastian Ehlert       : rSCAN, r2SCAN, r2SCAN-3c, D4, dhf basis sets  
  Marvin Friede          : D4 for Fr, Ra, Ac-Lr                          
  Lars Goerigk           : TD-DFT with DH, B97 family of functionals     
  Stefan Grimme          : VdW corrections, initial TS optimization, DFT functionals, gCP, sTDA/sTD-DF 
  Waldemar Hujo          : DFT-NL                                        
  H. Jonsson             : NEB                                           
  Holger Kruse           : gCP                                           
  Marcel Mueller         : wB97X-3c, vDZP basis set                      
  Hagen Neugebauer       : wr2SCAN                                       
  Tobias Risthaus        : range-separated hybrid DFT                    
  Lukas Wittmann         : regularized MP2, r2SCAN double-hybrids, wr2SCAN        
                                                                         
We gratefully acknowledge several colleagues who have allowed us to      
interface, adapt or use parts of their codes:                            
  Ed Valeev, F. Pavosevic, A. Kumar             : LibInt (2-el integral package), F12 methods 
  Garnet Chan, S. Sharma, J. Yang, R. Olivares  : DMRG                   
  Ulf Ekstrom                                   : XCFun DFT Library      
  Mihaly Kallay                                 : mrcc  (arbitrary order and MRCC methods)
  Frank Weinhold                                : gennbo (NPA and NBO analysis)           
  Simon Mueller                                 : openCOSMO-RS                            
  Christopher J. Cramer and Donald G. Truhlar   : smd solvation model                     
  S Lehtola, MJT Oliveira, MAL Marques          : LibXC Library                           
  Liviu Ungur et al                             : ANISO software                          


 Your calculation uses the libint2 library for the computation of 2-el integrals
 For citations please refer to: http://libint.valeyev.net

 Your ORCA version has been built with support for libXC version: 6.2.2
 For citations please refer to: https://libxc.gitlab.io

 This ORCA versions uses:
   CBLAS   interface :  Fast vector & matrix operations
   LAPACKE interface :  Fast linear algebra routines
   SCALAPACK package :  Parallel linear algebra routines
   Shared memory     :  Shared parallel matrices
   BLAS/LAPACK       :  OpenBLAS 0.3.27  USE64BITINT DYNAMIC_ARCH NO_AFFINITY SapphireRapids SINGLE_THREADED
        Core in use  :  SapphireRapids
   Copyright (c) 2011-2014, The OpenBLAS Project


Warning! Weird basis set assignment to AuxJK basis!


***************************************
The coordinates will be read from file: /g/data/kx58/rs2200/dhdft/inputs/compas3x-xyzs/hc_c36h20_0pent_2.xyz
***************************************


Your calculation utilizes the atom-pairwise dispersion correction
based on EEQ partial charges (D4)


================================================================================

----- Orbital basis set information -----
Your calculation utilizes the basis: def2-QZVPP
   F. Weigend and R. Ahlrichs, Phys. Chem. Chem. Phys. 7, 3297 (2005).

----- AuxC basis set information -----
Your calculation utilizes the auxiliary basis: def2-QZVPP/C
  H-La, Hf-Rn : A. Hellweg, C. Hattig, S. Hofener and W. Klopper, Theor. Chem. Acc. 117, 587 (2007).
        Ce-Lu : J. Chmela and M. E. Harding, Mol. Phys. (2018).

----- AuxJK basis set information -----
Your calculation utilizes the auxiliary basis: def2-QZVPP/C
  H-La, Hf-Rn : A. Hellweg, C. Hattig, S. Hofener and W. Klopper, Theor. Chem. Acc. 117, 587 (2007).
        Ce-Lu : J. Chmela and M. E. Harding, Mol. Phys. (2018).

================================================================================
                                        WARNINGS
                       Please study these warnings very carefully!
================================================================================


WARNING: No MP2 level density has been requested!
         To calculate MP2 level properties use
         %mp2 Density relaxed end
         or
         %mp2 Density unrelaxed end
         Otherwise for double-hybrid DFT only the energy is correct!

================================================================================
                                       INPUT FILE
================================================================================
NAME = compas3x_hc_c36h20_0pent_2_qz_riri.inp
|  1> ! RKS revDSD-PBEP86-D4/2021 defgrid3  RIJK NOPOP NoFrozencore NoUseSym
|  2> 
|  3> %basis
|  4> Basis "def2-QZVPP"
|  5> AuxJK "def2-QZVPP/C"
|  6> AuxC "def2-QZVPP/C"
|  7> end
|  8> 
|  9> %method
| 10> ScalHFX 0.69
| 11> ScalDFX 0.31
| 12> ScalDFC 0.4038
| 13> ScalLDAC 0.4038
| 14> 
| 15> D4S6 0.4612
| 16> D4S8 0.0
| 17> D4A1 0.44
| 18> D4A2 3.60
| 19> end
| 20> 
| 21> %mp2
| 22> PS 0.5979
| 23> PT 0.0571
| 24> 
| 25> end
| 26> 
| 27> %pal
| 28> nprocs 104
| 29> end
| 30> 
| 31> *XYZFILE 0 1 /g/data/kx58/rs2200/dhdft/inputs/compas3x-xyzs/hc_c36h20_0pent_2.xyz
| 32> 
| 33>                          ****END OF INPUT****
================================================================================

                       ****************************
                       * Single Point Calculation *
                       ****************************

---------------------------------
CARTESIAN COORDINATES (ANGSTROEM)
---------------------------------
  C      2.660424   -0.013017   -0.534446
  C      1.926457   -1.224233   -0.575099
  C      0.522305   -1.207129   -0.318191
  C     -0.107701    0.017239   -0.018844
  C      0.719058    1.084822    0.492420
  C      2.066793    1.128338    0.124677
  C      3.954656    0.003840   -1.054750
  C      4.528510   -1.146872   -1.552792
  C      3.848264   -2.349532   -1.503548
  C      2.551547   -2.418396   -1.001685
  C      1.818462   -3.670048   -0.923301
  C      0.433584   -3.658693   -0.660014
  C     -0.248808   -2.393610   -0.452993
  C     -1.621677   -2.293832   -0.330162
  C     -2.266383   -1.053650   -0.267289
  C     -1.507067    0.136321   -0.220742
  C      0.215265    2.048286    1.428646
  C      0.991363    3.197013    1.716600
  C      2.291340    3.301584    1.167698
  C      2.829816    2.274333    0.460207
  C      2.463711   -4.902418   -1.079133
  C      1.774629   -6.090680   -1.004695
  C      0.406941   -6.079107   -0.764458
  C     -0.245842   -4.880770   -0.591208
  C     -3.689513   -0.981209   -0.225402
  C     -4.326827    0.210404   -0.206099
  C     -3.599470    1.423987   -0.372685
  C     -2.187284    1.387909   -0.446703
  C     -0.987843    1.874152    2.138858
  C     -1.451549    2.837600    2.994092
  C     -0.732843    4.022154    3.188748
  C      0.479829    4.185338    2.577406
  C     -4.270206    2.647328   -0.525078
  C     -3.580359    3.797844   -0.808124
  C     -2.198528    3.743407   -0.996129
  C     -1.519155    2.563729   -0.824083
  H      4.518614    0.922093   -1.090437
  H      5.522869   -1.111965   -1.973751
  H      4.330978   -3.230640   -1.894644
  H     -2.246710   -3.172584   -0.342836
  H      2.871075    4.189907    1.374243
  H      3.858456    2.339099    0.143956
  H      3.529656   -4.934570   -1.239488
  H      2.297147   -7.028297   -1.124527
  H     -0.141076   -7.007736   -0.701807
  H     -1.303261   -4.899252   -0.381627
  H     -4.243768   -1.908452   -0.191015
  H     -5.403333    0.264521   -0.128239
  H     -1.539894    0.953247    2.033339
  H     -2.376044    2.680746    3.530130
  H     -1.122961    4.784618    3.846829
  H      1.075714    5.068179    2.761680
  H     -5.347478    2.661803   -0.436363
  H     -4.103184    4.736195   -0.920806
  H     -1.661677    4.634754   -1.285632
  H     -0.457024    2.535902   -1.010707

----------------------------
CARTESIAN COORDINATES (A.U.)
----------------------------
  NO LB      ZA    FRAG     MASS         X           Y           Z
   0 C     6.0000    0    12.011    5.027473   -0.024598   -1.009958
   1 C     6.0000    0    12.011    3.640477   -2.313465   -1.086780
   2 C     6.0000    0    12.011    0.987013   -2.281143   -0.601294
   3 C     6.0000    0    12.011   -0.203525    0.032578   -0.035609
   4 C     6.0000    0    12.011    1.358824    2.050017    0.930540
   5 C     6.0000    0    12.011    3.905673    2.132251    0.235605
   6 C     6.0000    0    12.011    7.473216    0.007257   -1.993189
   7 C     6.0000    0    12.011    8.557644   -2.167275   -2.934351
   8 C     6.0000    0    12.011    7.272164   -4.439972   -2.841293
   9 C     6.0000    0    12.011    4.821724   -4.570106   -1.892911
  10 C     6.0000    0    12.011    3.436395   -6.935385   -1.744787
  11 C     6.0000    0    12.011    0.819355   -6.913927   -1.247245
  12 C     6.0000    0    12.011   -0.470179   -4.523268   -0.856033
  13 C     6.0000    0    12.011   -3.064526   -4.334715   -0.623916
  14 C     6.0000    0    12.011   -4.282843   -1.991110   -0.505103
  15 C     6.0000    0    12.011   -2.847943    0.257609   -0.417142
  16 C     6.0000    0    12.011    0.406791    3.870700    2.699750
  17 C     6.0000    0    12.011    1.873405    6.041479    3.243903
  18 C     6.0000    0    12.011    4.330006    6.239089    2.206630
  19 C     6.0000    0    12.011    5.347578    4.297866    0.869666
  20 C     6.0000    0    12.011    4.655740   -9.264227   -2.039265
  21 C     6.0000    0    12.011    3.353562  -11.509717   -1.898599
  22 C     6.0000    0    12.011    0.769008  -11.487847   -1.444617
  23 C     6.0000    0    12.011   -0.464574   -9.223319   -1.117221
  24 C     6.0000    0    12.011   -6.972169   -1.854217   -0.425949
  25 C     6.0000    0    12.011   -8.176518    0.397606   -0.389470
  26 C     6.0000    0    12.011   -6.802012    2.690946   -0.704272
  27 C     6.0000    0    12.011   -4.133367    2.622768   -0.844146
  28 C     6.0000    0    12.011   -1.866752    3.541633    4.041855
  29 C     6.0000    0    12.011   -2.743030    5.362287    5.658014
  30 C     6.0000    0    12.011   -1.384873    7.600770    6.025860
  31 C     6.0000    0    12.011    0.906746    7.909142    4.870592
  32 C     6.0000    0    12.011   -8.069520    5.002726   -0.992253
  33 C     6.0000    0    12.011   -6.765897    7.176885   -1.527133
  34 C     6.0000    0    12.011   -4.154615    7.074013   -1.882410
  35 C     6.0000    0    12.011   -2.870786    4.844746   -1.557291
  36 H     1.0000    0     1.008    8.538944    1.742503   -2.060628
  37 H     1.0000    0     1.008   10.436709   -2.101310   -3.729849
  38 H     1.0000    0     1.008    8.184363   -6.105024   -3.580358
  39 H     1.0000    0     1.008   -4.245667   -5.995316   -0.647866
  40 H     1.0000    0     1.008    5.425545    7.917776    2.596944
  41 H     1.0000    0     1.008    7.291426    4.420256    0.272037
  42 H     1.0000    0     1.008    6.670083   -9.324985   -2.342292
  43 H     1.0000    0     1.008    4.340979  -13.281557   -2.125047
  44 H     1.0000    0     1.008   -0.266594  -13.242701   -1.326222
  45 H     1.0000    0     1.008   -2.462807   -9.258245   -0.721171
  46 H     1.0000    0     1.008   -8.019560   -3.606452   -0.360965
  47 H     1.0000    0     1.008  -10.210819    0.499873   -0.242337
  48 H     1.0000    0     1.008   -2.909979    1.801375    3.842455
  49 H     1.0000    0     1.008   -4.490073    5.065875    6.670979
  50 H     1.0000    0     1.008   -2.122088    9.041617    7.269453
  51 H     1.0000    0     1.008    2.032804    9.577470    5.218819
  52 H     1.0000    0     1.008  -10.105268    5.030078   -0.824606
  53 H     1.0000    0     1.008   -7.753894    8.950112   -1.740072
  54 H     1.0000    0     1.008   -3.140115    8.758415   -2.429493
  55 H     1.0000    0     1.008   -0.863651    4.792160   -1.909959

--------------------------------
INTERNAL COORDINATES (ANGSTROEM)
--------------------------------
 C      0   0   0     0.000000000000     0.00000000     0.00000000
 C      1   0   0     1.416829063841     0.00000000     0.00000000
 C      2   1   0     1.427563915581   119.61262076     0.00000000
 C      3   2   1     1.409111015211   119.23569332   359.56260432
 C      4   3   2     1.443833680050   117.49553667   337.69295888
 C      5   4   3     1.397683117797   118.81639913    28.58162122
 C      1   2   3     1.395003689792   118.70118901   193.26604416
 C      7   1   2     1.378946763191   120.71168561   357.56128830
 C      8   7   1     1.382588481556   120.54876144   357.76048557
 C      9   8   7     1.392150575882   120.94063492     2.61927265
 C     10   9   8     1.452649297195   122.14964318   180.73268689
 C     11  10   9     1.409729120042   119.92690663   192.46248950
 C      3   2   1     1.421451551318   120.43223062   175.23802768
 C     13   3   2     1.381960018845   118.04854797   186.66580547
 C     14  13   3     1.399160669635   121.71807399     9.06269630
 C     15  14  13     1.412359258761   120.03727245   354.90256151
 C      5   4   3     1.434778658292   121.77032933   212.50523080
 C     17   5   4     1.415916173828   119.01449303   190.76644683
 C     18  17   5     1.414980049153   118.98895885   354.30556583
 C     19  18  17     1.358581751257   120.68194113   354.99055173
 C     11  10   9     1.399773676861   121.32905830    13.70149593
 C     21  11  10     1.375624539734   121.57138545   179.94245462
 C     22  21  11     1.388674449972   119.70372939   359.74511484
 C     23  22  21     1.375555221254   119.76457616   359.43154156
 C     15  14  13     1.425587706760   120.42080206   176.03668583
 C     25  15  14     1.351474830330   121.06297975   182.05717359
 C     26  25  15     1.424634864940   120.57455451     6.82223748
 C     27  26  25     1.414584389118   119.60934430   354.68963481
 C     17   5   4     1.407902899118   123.10412675    14.42610869
 C     29  17   5     1.369190391585   121.16254854   181.93690302
 C     30  29  17     1.399141485865   120.57562457   359.67032249
 C     31  30  29     1.367823928365   119.61921523   356.28854004
 C     27  26  25     1.403450874156   120.74552414   171.77328092
 C     33  27  26     1.371018317753   120.89193879   186.05253658
 C     34  33  27     1.395623886122   119.55573682     2.39025552
 C     35  34  33     1.372146712919   120.45539527   356.24304577
 H      7   1   2     1.078198201267   120.52461852   176.48606208
 H      8   7   1     1.080358433828   119.78820579   178.54439225
 H      9   8   7     1.078109510974   118.53517840   180.51750387
 H     14  13   3     1.078439604437   121.05649104   185.07050124
 H     19  18  17     1.080680653739   118.65009406   178.74917349
 H     20  19  18     1.078104686857   119.04540045   186.46887319
 H     21  11  10     1.078417988631   119.89666685     1.36020818
 H     22  21  11     1.080051622153   120.10177544   180.25025455
 H     23  22  21     1.080092560433   120.17091449   180.16992313
 H     24  23  22     1.078146910937   118.35843498   181.49680722
 H     25  15  14     1.080815128452   117.98684510     3.16879295
 H     26  25  15     1.080673564779   120.99304494   182.85581956
 H     29  17   5     1.078870525469   119.57086905     3.91722256
 H     30  29  17     1.080107327439   119.84690875   180.15162344
 H     31  30  29     1.080098895084   119.79417562   178.42911134
 H     32  31  30     1.080945479190   120.66232892   183.60415378
 H     33  27  26     1.081015299513   118.62171198     4.71622505
 H     34  33  27     1.080067989512   120.46645898   180.20031522
 H     35  34  33     1.080055699062   119.73989268   175.82225197
 H     36  35  34     1.078760254457   119.20723395   177.71498049

---------------------------
INTERNAL COORDINATES (A.U.)
---------------------------
 C      0   0   0     0.000000000000     0.00000000     0.00000000
 C      1   0   0     2.677418909239     0.00000000     0.00000000
 C      2   1   0     2.697704839116   119.61262076     0.00000000
 C      3   2   1     2.662833911041   119.23569332   359.56260432
 C      4   3   2     2.728450238227   117.49553667   337.69295888
 C      5   4   3     2.641238314641   118.81639913    28.58162122
 C      1   2   3     2.636174929517   118.70118901   193.26604416
 C      7   1   2     2.605831735688   120.71168561   357.56128830
 C      8   7   1     2.612713586054   120.54876144   357.76048557
 C      9   8   7     2.630783325598   120.94063492     2.61927265
 C     10   9   8     2.745109340332   122.14964318   180.73268689
 C     11  10   9     2.664001959893   119.92690663   192.46248950
 C      3   2   1     2.686154144629   120.43223062   175.23802768
 C     13   3   2     2.611525963645   118.04854797   186.66580547
 C     14  13   3     2.644030482964   121.71807399     9.06269630
 C     15  14  13     2.668972201767   120.03727245   354.90256151
 C      5   4   3     2.711338726966   121.77032933   212.50523080
 C     17   5   4     2.675693797125   119.01449303   190.76644683
 C     18  17   5     2.673924777862   118.98895885   354.30556583
 C     19  18  17     2.567347440419   120.68194113   354.99055173
 C     11  10   9     2.645188898740   121.32905830    13.70149593
 C     21  11  10     2.599553643198   121.57138545   179.94245462
 C     22  21  11     2.624214399620   119.70372939   359.74511484
 C     23  22  21     2.599422650255   119.76457616   359.43154156
 C     15  14  13     2.693970345661   120.42080206   176.03668583
 C     25  15  14     2.553917306211   121.06297975   182.05717359
 C     26  25  15     2.692169735573   120.57455451     6.82223748
 C     27  26  25     2.673177088754   119.60934430   354.68963481
 C     17   5   4     2.660550902486   123.10412675    14.42610869
 C     29  17   5     2.587394865293   121.16254854   181.93690302
 C     30  29  17     2.643994230892   120.57562457   359.67032249
 C     31  30  29     2.584812624033   119.61921523   356.28854004
 C     27  26  25     2.652137794568   120.74552414   171.77328092
 C     33  27  26     2.590849145142   120.89193879   186.05253658
 C     34  33  27     2.637346930729   119.55573682     2.39025552
 C     35  34  33     2.592981502978   120.45539527   356.24304577
 H      7   1   2     2.037499318481   120.52461852   176.48606208
 H      8   7   1     2.041581566406   119.78820579   178.54439225
 H      9   8   7     2.037331718117   118.53517840   180.51750387
 H     14  13   3     2.037955504360   121.05649104   185.07050124
 H     19  18  17     2.042190473794   118.65009406   178.74917349
 H     20  19  18     2.037322601857   119.04540045   186.46887319
 H     21  11  10     2.037914656408   119.89666685     1.36020818
 H     22  21  11     2.041001776367   120.10177544   180.25025455
 H     23  22  21     2.041079138504   120.17091449   180.16992313
 H     24  23  22     2.037402393804   118.35843498   181.49680722
 H     25  15  14     2.042444594173   117.98684510     3.16879295
 H     26  25  15     2.042177077601   120.99304494   182.85581956
 H     29  17   5     2.038769827097   119.57086905     3.91722256
 H     30  29  17     2.041107044102   119.84690875   180.15162344
 H     31  30  29     2.041091109259   119.79417562   178.42911134
 H     32  31  30     2.042690921370   120.66232892   183.60415378
 H     33  27  26     2.042822862658   118.62171198     4.71622505
 H     34  33  27     2.041032706193   120.46645898   180.20031522
 H     35  34  33     2.041009480608   119.73989268   175.82225197
 H     36  35  34     2.038561445083   119.20723395   177.71498049

---------------------
BASIS SET INFORMATION
---------------------
There are 2 groups of distinct atoms

 Group   1 Type C   : 15s8p3d2f1g contracted to 7s4p3d2f1g pattern {8211111/5111/111/11/1}
 Group   2 Type H   : 7s3p2d1f contracted to 4s3p2d1f pattern {4111/111/11/1}

Atom   0C    basis set group =>   1
Atom   1C    basis set group =>   1
Atom   2C    basis set group =>   1
Atom   3C    basis set group =>   1
Atom   4C    basis set group =>   1
Atom   5C    basis set group =>   1
Atom   6C    basis set group =>   1
Atom   7C    basis set group =>   1
Atom   8C    basis set group =>   1
Atom   9C    basis set group =>   1
Atom  10C    basis set group =>   1
Atom  11C    basis set group =>   1
Atom  12C    basis set group =>   1
Atom  13C    basis set group =>   1
Atom  14C    basis set group =>   1
Atom  15C    basis set group =>   1
Atom  16C    basis set group =>   1
Atom  17C    basis set group =>   1
Atom  18C    basis set group =>   1
Atom  19C    basis set group =>   1
Atom  20C    basis set group =>   1
Atom  21C    basis set group =>   1
Atom  22C    basis set group =>   1
Atom  23C    basis set group =>   1
Atom  24C    basis set group =>   1
Atom  25C    basis set group =>   1
Atom  26C    basis set group =>   1
Atom  27C    basis set group =>   1
Atom  28C    basis set group =>   1
Atom  29C    basis set group =>   1
Atom  30C    basis set group =>   1
Atom  31C    basis set group =>   1
Atom  32C    basis set group =>   1
Atom  33C    basis set group =>   1
Atom  34C    basis set group =>   1
Atom  35C    basis set group =>   1
Atom  36H    basis set group =>   2
Atom  37H    basis set group =>   2
Atom  38H    basis set group =>   2
Atom  39H    basis set group =>   2
Atom  40H    basis set group =>   2
Atom  41H    basis set group =>   2
Atom  42H    basis set group =>   2
Atom  43H    basis set group =>   2
Atom  44H    basis set group =>   2
Atom  45H    basis set group =>   2
Atom  46H    basis set group =>   2
Atom  47H    basis set group =>   2
Atom  48H    basis set group =>   2
Atom  49H    basis set group =>   2
Atom  50H    basis set group =>   2
Atom  51H    basis set group =>   2
Atom  52H    basis set group =>   2
Atom  53H    basis set group =>   2
Atom  54H    basis set group =>   2
Atom  55H    basis set group =>   2
---------------------------------
AUXILIARY/C BASIS SET INFORMATION
---------------------------------
There are 2 groups of distinct atoms

 Group   1 Type C   : 9s8p7d5f3g1h contracted to 9s8p7d5f3g1h pattern {111111111/11111111/1111111/11111/111/1}
 Group   2 Type H   : 6s4p3d2f1g contracted to 6s4p3d2f1g pattern {111111/1111/111/11/1}

Atom   0C    basis set group =>   1
Atom   1C    basis set group =>   1
Atom   2C    basis set group =>   1
Atom   3C    basis set group =>   1
Atom   4C    basis set group =>   1
Atom   5C    basis set group =>   1
Atom   6C    basis set group =>   1
Atom   7C    basis set group =>   1
Atom   8C    basis set group =>   1
Atom   9C    basis set group =>   1
Atom  10C    basis set group =>   1
Atom  11C    basis set group =>   1
Atom  12C    basis set group =>   1
Atom  13C    basis set group =>   1
Atom  14C    basis set group =>   1
Atom  15C    basis set group =>   1
Atom  16C    basis set group =>   1
Atom  17C    basis set group =>   1
Atom  18C    basis set group =>   1
Atom  19C    basis set group =>   1
Atom  20C    basis set group =>   1
Atom  21C    basis set group =>   1
Atom  22C    basis set group =>   1
Atom  23C    basis set group =>   1
Atom  24C    basis set group =>   1
Atom  25C    basis set group =>   1
Atom  26C    basis set group =>   1
Atom  27C    basis set group =>   1
Atom  28C    basis set group =>   1
Atom  29C    basis set group =>   1
Atom  30C    basis set group =>   1
Atom  31C    basis set group =>   1
Atom  32C    basis set group =>   1
Atom  33C    basis set group =>   1
Atom  34C    basis set group =>   1
Atom  35C    basis set group =>   1
Atom  36H    basis set group =>   2
Atom  37H    basis set group =>   2
Atom  38H    basis set group =>   2
Atom  39H    basis set group =>   2
Atom  40H    basis set group =>   2
Atom  41H    basis set group =>   2
Atom  42H    basis set group =>   2
Atom  43H    basis set group =>   2
Atom  44H    basis set group =>   2
Atom  45H    basis set group =>   2
Atom  46H    basis set group =>   2
Atom  47H    basis set group =>   2
Atom  48H    basis set group =>   2
Atom  49H    basis set group =>   2
Atom  50H    basis set group =>   2
Atom  51H    basis set group =>   2
Atom  52H    basis set group =>   2
Atom  53H    basis set group =>   2
Atom  54H    basis set group =>   2
Atom  55H    basis set group =>   2
----------------------------------
AUXILIARY/JK BASIS SET INFORMATION
----------------------------------
There are 2 groups of distinct atoms

 Group   1 Type C   : 9s8p7d5f3g1h contracted to 9s8p7d5f3g1h pattern {111111111/11111111/1111111/11111/111/1}
 Group   2 Type H   : 6s4p3d2f1g contracted to 6s4p3d2f1g pattern {111111/1111/111/11/1}

Atom   0C    basis set group =>   1
Atom   1C    basis set group =>   1
Atom   2C    basis set group =>   1
Atom   3C    basis set group =>   1
Atom   4C    basis set group =>   1
Atom   5C    basis set group =>   1
Atom   6C    basis set group =>   1
Atom   7C    basis set group =>   1
Atom   8C    basis set group =>   1
Atom   9C    basis set group =>   1
Atom  10C    basis set group =>   1
Atom  11C    basis set group =>   1
Atom  12C    basis set group =>   1
Atom  13C    basis set group =>   1
Atom  14C    basis set group =>   1
Atom  15C    basis set group =>   1
Atom  16C    basis set group =>   1
Atom  17C    basis set group =>   1
Atom  18C    basis set group =>   1
Atom  19C    basis set group =>   1
Atom  20C    basis set group =>   1
Atom  21C    basis set group =>   1
Atom  22C    basis set group =>   1
Atom  23C    basis set group =>   1
Atom  24C    basis set group =>   1
Atom  25C    basis set group =>   1
Atom  26C    basis set group =>   1
Atom  27C    basis set group =>   1
Atom  28C    basis set group =>   1
Atom  29C    basis set group =>   1
Atom  30C    basis set group =>   1
Atom  31C    basis set group =>   1
Atom  32C    basis set group =>   1
Atom  33C    basis set group =>   1
Atom  34C    basis set group =>   1
Atom  35C    basis set group =>   1
Atom  36H    basis set group =>   2
Atom  37H    basis set group =>   2
Atom  38H    basis set group =>   2
Atom  39H    basis set group =>   2
Atom  40H    basis set group =>   2
Atom  41H    basis set group =>   2
Atom  42H    basis set group =>   2
Atom  43H    basis set group =>   2
Atom  44H    basis set group =>   2
Atom  45H    basis set group =>   2
Atom  46H    basis set group =>   2
Atom  47H    basis set group =>   2
Atom  48H    basis set group =>   2
Atom  49H    basis set group =>   2
Atom  50H    basis set group =>   2
Atom  51H    basis set group =>   2
Atom  52H    basis set group =>   2
Atom  53H    basis set group =>   2
Atom  54H    basis set group =>   2
Atom  55H    basis set group =>   2


           ************************************************************
           *        Program running with 104 parallel MPI-processes   *
           *              working on a common directory               *
           ************************************************************
------------------------------------------------------------------------------
                             ORCA STARTUP CALCULATIONS
                           -- RI-GTO INTEGRALS CHOSEN --
------------------------------------------------------------------------------
------------------------------------------------------------------------------
                   ___                                                        
                  /   \      - P O W E R E D   B Y -                         
                 /     \                                                     
                 |  |  |   _    _      __       _____    __    __             
                 |  |  |  | |  | |    /  \     |  _  \  |  |  /  |          
                  \  \/   | |  | |   /    \    | | | |  |  | /  /          
                 / \  \   | |__| |  /  /\  \   | |_| |  |  |/  /          
                |  |  |   |  __  | /  /__\  \  |    /   |      \           
                |  |  |   | |  | | |   __   |  |    \   |  |\   \          
                \     /   | |  | | |  |  |  |  | |\  \  |  | \   \       
                 \___/    |_|  |_| |__|  |__|  |_| \__\ |__|  \__/        
                                                                              
                      - O R C A' S   B I G   F R I E N D -                    
                                      &                                       
                       - I N T E G R A L  F E E D E R -                       
                                                                              
 v1 FN, 2020, v2 2021, v3 2022-2024                                           
------------------------------------------------------------------------------


----------------------
SHARK INTEGRAL PACKAGE
----------------------

Number of atoms                             ...     56
Number of basis functions                   ...   2652
Number of shells                            ...    812
Maximum angular momentum                    ...      4
Integral batch strategy                     ... SHARK/LIBINT Hybrid
RI-J (if used) integral strategy            ... SPLIT-RIJ (Revised 2003 algorithm where possible)
Printlevel                                  ...      1
Contraction scheme used                     ... SEGMENTED contraction
Prescreening option                         ... SCHWARTZ
   Thresh                                   ... 1.000e-10
   Tcut                                     ... 1.000e-11
   Tpresel                                  ... 1.000e-11 
Coulomb Range Separation                    ... NOT USED
Exchange Range Separation                   ... NOT USED
Multipole approximations                    ... NOT USED
Finite Nucleus Model                        ... NOT USED
CABS basis                                  ... NOT available
Auxiliary Coulomb fitting basis             ... NOT available
Auxiliary J/K fitting basis                 ... AVAILABLE
   # of basis functions in Aux-JK           ...   6196
   # of shells in Aux-JK                    ...   1508
   Maximum angular momentum in Aux-JK       ...      5
Auxiliary Correlation fitting basis         ... AVAILABLE
   # of basis functions in Aux-C            ...   6196
   # of shells in Aux-C                     ...   1508
   Maximum angular momentum in Aux-C        ...      5
Auxiliary 'external' fitting basis          ... NOT available

Checking pre-screening integrals            ... done (  0.0 sec) Dimension = 812
Check shell pair data                       ... done (  0.0 sec)
Shell pair information
Shell pair cut-off parameter TPreSel        ...   1.0e-11
Total number of shell pairs                 ...    330078
Shell pairs after pre-screening             ...    173093
Total number of primitive shell pairs       ...    852384
Primitive shell pairs kept                  ...    298034
          la=0 lb=0:  26258 shell pairs
          la=1 lb=0:  39733 shell pairs
          la=1 lb=1:  14124 shell pairs
          la=2 lb=0:  23291 shell pairs
          la=2 lb=1:  17973 shell pairs
          la=2 lb=2:   5506 shell pairs
          la=3 lb=0:  13719 shell pairs
          la=3 lb=1:  10631 shell pairs
          la=3 lb=2:   6201 shell pairs
          la=3 lb=3:   1821 shell pairs
          la=4 lb=0:   5400 shell pairs
          la=4 lb=1:   4234 shell pairs
          la=4 lb=2:   2479 shell pairs
          la=4 lb=3:   1414 shell pairs
          la=4 lb=4:    309 shell pairs

Calculating one electron integrals          ... done (  0.9 sec)
Calculating RI/JK V-Matrix + Cholesky decomp... done (  2.0 sec)
Calculating RI/C V-Matrix + Cholesky decomp.... done (  2.3 sec)
Calculating Nuclear repulsion               ... done (  0.0 sec) ENN=   3527.190543981713 Eh

Diagonalization of the overlap matrix:
Smallest eigenvalue                        ... 1.642e-07
Time for diagonalization                   ...    1.075 sec
Threshold for overlap eigenvalues          ... 1.000e-07
Number of eigenvalues below threshold      ... 0

IMPORTANT:
Smallest eigenvalue of S below the DiffSThresh (1.000e-06) while
Thresh>1e-12 and/or TCut>1e-13! In order to avoid SCF convergence issues,
Thresh will be set to at least 1e-12 and TCut to at least 1e-13.
This can be turned off by adding %SCF DiffSThresh -1 END to the input.

Time for construction of square roots      ...    0.826 sec
Total time needed                          ...    1.987 sec

-------------------
DFT GRID GENERATION
-------------------

General Integration Accuracy     IntAcc      ... 4.959
Radial Grid Type                 RadialGrid  ... OptM3 with GC (2021)
Angular Grid (max. ang.)         AngularGrid ... 6 (Lebedev-590)
Angular grid pruning method      GridPruning ... 4 (adaptive)
Weight generation scheme         WeightScheme... mBecke (2022)
Basis function cutoff            BFCut       ... 1.0000e-10
Integration weight cutoff        WCut        ... 1.0000e-14
Partially contracted basis set               ... off
Rotationally invariant grid construction     ... off
Angular grids for H and He will be reduced by one unit
Diffuse basis detected: some atoms will have their outermost
                        angular grid increased by 1.

Total number of grid points                  ...   687646
Total number of batches                      ...    10774
Average number of points per batch           ...       63
Average number of grid points per atom       ...    12279
Initializing property integral containers    ... done (  0.1 sec)

SHARK setup successfully completed in  18.4 seconds

Maximum memory used throughout the entire STARTUP-calculation: 341.7 MB


           ************************************************************
           *        Program running with 104 parallel MPI-processes   *
           *              working on a common directory               *
           ************************************************************
-------------------------------------------------------------------------------
                                 ORCA GUESS
                   Start orbitals & Density for SCF / CASSCF
-------------------------------------------------------------------------------

------------
SCF SETTINGS
------------
Hamiltonian:
 Density Functional     Method          .... DFT(GTOs)
 Exchange Functional    Exchange        .... PBE
   PBE kappa parameter   XKappa         ....  0.804000
   PBE mue parameter    XMuePBE         ....  0.219520
 Correlation Functional Correlation     .... P86
 LDA part of GGA corr.  LDAOpt          .... VWN-5
 Gradients option       PostSCFGGA      .... off
 Hybrid DFT is turned on
   Fraction HF Exchange ScalHFX         ....  0.690000
   Scaling of DF-GGA-X  ScalDFX         ....  0.310000
   Scaling of DF-GGA-C  ScalDFC         ....  0.403800
   Scaling of DF-LDA-C  ScalLDAC        ....  0.403800
   Perturbative correction              ....  1.000000
 RI-approximation to the Coulomb term is turned on
   Number of AuxJK basis functions      .... 6196
   RI-JK (J+K treated both via RI)      .... on


General Settings:
 Integral files         IntName         .... compas3x_hc_c36h20_0pent_2_qz_riri
 Hartree-Fock type      HFTyp           .... RHF
 Total Charge           Charge          ....    0
 Multiplicity           Mult            ....    1
 Number of Electrons    NEL             ....  236
 Basis Dimension        Dim             .... 2652
 Nuclear Repulsion      ENuc            ....   3527.1905439817 Eh

Convergence Acceleration:
 AO-DIIS                CNVDIIS         .... on
   Start iteration      DIISMaxIt       ....    12
   Startup error        DIISStart       ....  0.200000
   # of expansion vecs  DIISMaxEq       ....     5
   Bias factor          DIISBfac        ....   1.050
   Max. coefficient     DIISMaxC        ....  10.000
 MO-DIIS                CNVKDIIS        .... off
 Trust-Rad. Augm. Hess. CNVTRAH         .... auto
   Auto Start mean grad. ratio tolernc. ....  1.125000
   Auto Start start iteration           ....    50
   Auto Start num. interpolation iter.  ....    10
   Max. Number of Micro iterations      ....    24
   Max. Number of Macro iterations      .... Maxiter - #DIIS iter
   Number of Davidson start vectors     ....     2
   Converg. threshold    (grad. norm)   ....   5.000e-05
   Grad. Scal. Fac. for Micro threshold ....   0.100
   Minimum threshold for Micro iter.    ....   1.000e-02
   NR start threshold (gradient norm)   ....   1.000e-04
   Initial trust radius                 ....   0.400
   Minimum AH scaling param. (alpha)    ....   1.000
   Maximum AH scaling param. (alpha)    .... 1000.000
   Quad. conv. algorithm                .... NR
   White noise on init. David. guess    .... on
   Maximum white noise                  ....   0.010
   Pseudo random numbers                .... off
   Inactive MOs                         .... canonical
   Orbital update algorithm             .... Taylor
   Preconditioner                       .... Diag
   Full preconditioner red. dimension   ....   250
 SOSCF                  CNVSOSCF        .... on
   Start iteration      SOSCFMaxIt      ....   150
   Startup grad/error   SOSCFStart      ....  0.003300
   Hessian update       SOSCFHessUp     .... L-BFGS
 Level Shifting         CNVShift        .... on
   Level shift para.    LevelShift      ....    0.2500
   Turn off err/grad.   ShiftErr        ....    0.0010
 Zerner damping         CNVZerner       .... off
 Static damping         CNVDamp         .... on
   Fraction old density DampFac         ....    0.7000
   Max. Damping (<1)    DampMax         ....    0.9800
   Min. Damping (>=0)   DampMin         ....    0.0000
   Turn off err/grad.   DampErr         ....    0.1000

SCF Procedure:
 Maximum # iterations   MaxIter         ....   125
 SCF integral mode      SCFMode         .... Direct
   Integral package                     .... SHARK and LIBINT hybrid scheme
 Reset frequency        DirectResetFreq ....    20
 Integral Threshold     Thresh          ....  1.000e-12 Eh
 Primitive CutOff       TCut            ....  1.000e-13 Eh

Convergence Tolerance:
 Convergence Check Mode ConvCheckMode   .... Total+1el-Energy
 Convergence forced     ConvForced      .... 0
 Energy Change          TolE            ....  1.000e-06 Eh
 1-El. energy change                    ....  1.000e-03 Eh
 Orbital Gradient       TolG            ....  5.000e-05
 Orbital Rotation angle TolX            ....  5.000e-05
 DIIS Error             TolErr          ....  1.000e-06

------------------------------
INITIAL GUESS: MODEL POTENTIAL
------------------------------
Loading Hartree-Fock densities                     ... done
Calculating cut-offs                               ... done
Initializing the effective Hamiltonian             ... done
Setting up the integral package (SHARK)            ... done
Starting the Coulomb interaction                   ... done (   0.8 sec)
Making the grid                                    ... done (   0.5 sec)
Mapping shells                                     ... done
Starting the XC term evaluation                    ... done (   0.2 sec)
  promolecular density results
     # of electrons  =    235.987001050
     EX              =   -190.306942877
     EC              =      0.278056410
     EX+EC           =   -190.028886467
Transforming the Hamiltonian                       ... done (   0.6 sec)
Diagonalizing the Hamiltonian                      ... done (   0.7 sec)
Back transforming the eigenvectors                 ... done (   0.4 sec)
Now organizing SCF variables                       ... done
                      ------------------
                      INITIAL GUESS DONE (   4.1 sec)
                      ------------------
             **** ENERGY FILE WAS UPDATED (compas3x_hc_c36h20_0pent_2_qz_riri.en.tmp) ****
Finished Guess after  22.4 sec
Maximum memory used throughout the entire GUESS-calculation: 391.1 MB


           ************************************************************
           *        Program running with 104 parallel MPI-processes   *
           *              working on a common directory               *
           ************************************************************

-------------------------------------------------------------------------------------------
                                      ORCA LEAN-SCF
                              memory conserving SCF solver
-------------------------------------------------------------------------------------------


Warning (ORCA_SCF): Not enough memory available!
                    Memory available for SCF calculation:       1024.0 MB
                    Memory needed (estimated)           :       1237.7 MB


----------------------------------------D-I-I-S--------------------------------------------
Iteration    Energy (Eh)           Delta-E    RMSDP     MaxDP     DIISErr   Damp  Time(sec)
-------------------------------------------------------------------------------------------
    1    -1377.9748323215926575     0.00e+00  7.80e-04  3.19e-01  1.54e-01  0.700  44.5
    2    -1377.7201370168495487     2.55e-01  1.15e-03  4.87e-01  1.37e-01  0.700  46.5
                               ***Turning on AO-DIIS***
    3    -1377.8817043476001345    -1.62e-01  3.74e-04  1.05e-01  7.99e-02  0.700  44.3
    4    -1378.2006621985356105    -3.19e-01  9.93e-04  4.06e-01  4.09e-02  0.000  44.7
    5    -1378.7068921393829442    -5.06e-01  3.99e-04  1.57e-01  3.39e-02  0.000  44.3
    6    -1378.7273862952788477    -2.05e-02  1.38e-04  5.63e-02  1.59e-02  0.000  45.6
    7    -1378.7326819359304864    -5.30e-03  5.87e-05  2.35e-02  5.49e-03  0.000  44.4
                              *** Initializing SOSCF ***
---------------------------------------S-O-S-C-F--------------------------------------
Iteration    Energy (Eh)           Delta-E    RMSDP     MaxDP     MaxGrad    Time(sec)
--------------------------------------------------------------------------------------
    8    -1378.7333386485452138    -6.57e-04  7.21e-05  3.07e-02  1.33e-03    48.7
    9    -1378.7333933584704937    -5.47e-05  2.47e-05  8.09e-03  1.31e-04    45.0
   10    -1378.7333987988040462    -5.44e-06  3.57e-05  1.46e-02  1.32e-04    44.8
   11    -1378.7334001279868971    -1.33e-06  7.91e-06  2.67e-03  4.76e-05    42.9
   12    -1378.7334005479169718    -4.20e-07  2.89e-06  9.80e-04  1.42e-05    43.1
                 **** Energy Check signals convergence ****

               *****************************************************
               *                     SUCCESS                       *
               *           SCF CONVERGED AFTER  12 CYCLES          *
               *****************************************************

             **** ENERGY FILE WAS UPDATED (compas3x_hc_c36h20_0pent_2_qz_riri.en.tmp) ****

----------------
TOTAL SCF ENERGY
----------------

Total Energy       :      -1378.73340054791697 Eh          -37517.24317 eV

Components:
Nuclear Repulsion  :       3527.19054398171284 Eh           95979.73422 eV
Electronic Energy  :      -4905.92394452962981 Eh         -133496.97739 eV
One Electron Energy:      -8884.78858177145776 Eh         -241767.38853 eV
Two Electron Energy:       3978.86463724182795 Eh          108270.41114 eV

Virial components:
Potential Energy   :      -2754.55798687898186 Eh          -74955.33348 eV
Kinetic Energy     :       1375.82458633106512 Eh           37438.09031 eV
Virial Ratio       :          2.00211423334468

DFT components:
N(Alpha)           :      118.000013873323 electrons
N(Beta)            :      118.000013873323 electrons
N(Total)           :      236.000027746646 electrons
E(X)               :      -59.998079342101 Eh       
E(C)               :       -3.528890380240 Eh       
E(XC)              :      -63.526969722341 Eh       

---------------
SCF CONVERGENCE
---------------

  Last Energy change         ...    4.1993e-07  Tolerance :   1.0000e-06
  Last MAX-Density change    ...    9.7967e-04  Tolerance :   1.0000e-05
  Last RMS-Density change    ...    2.8907e-06  Tolerance :   1.0000e-06
  Last DIIS Error            ...    1.3321e-03  Tolerance :   1.0000e-06
  Last Orbital Gradient      ...    1.4199e-05  Tolerance :   5.0000e-05
  Last Orbital Rotation      ...    3.8508e-05  Tolerance :   5.0000e-05


----------------
ORBITAL ENERGIES
----------------

  NO   OCC          E(Eh)            E(eV) 
   0   2.0000     -10.837703      -294.9089 
   1   2.0000     -10.836275      -294.8700 
   2   2.0000     -10.836080      -294.8647 
   3   2.0000     -10.835919      -294.8604 
   4   2.0000     -10.835686      -294.8540 
   5   2.0000     -10.835501      -294.8490 
   6   2.0000     -10.835160      -294.8397 
   7   2.0000     -10.834725      -294.8278 
   8   2.0000     -10.834660      -294.8261 
   9   2.0000     -10.834479      -294.8212 
  10   2.0000     -10.834046      -294.8094 
  11   2.0000     -10.831752      -294.7470 
  12   2.0000     -10.829161      -294.6764 
  13   2.0000     -10.829149      -294.6761 
  14   2.0000     -10.827649      -294.6353 
  15   2.0000     -10.827014      -294.6180 
  16   2.0000     -10.823139      -294.5126 
  17   2.0000     -10.822983      -294.5083 
  18   2.0000     -10.822885      -294.5057 
  19   2.0000     -10.822591      -294.4977 
  20   2.0000     -10.822453      -294.4939 
  21   2.0000     -10.822282      -294.4893 
  22   2.0000     -10.821916      -294.4793 
  23   2.0000     -10.821843      -294.4773 
  24   2.0000     -10.821699      -294.4734 
  25   2.0000     -10.821447      -294.4665 
  26   2.0000     -10.821237      -294.4608 
  27   2.0000     -10.820643      -294.4447 
  28   2.0000     -10.818297      -294.3808 
  29   2.0000     -10.818000      -294.3727 
  30   2.0000     -10.817042      -294.3467 
  31   2.0000     -10.816844      -294.3413 
  32   2.0000     -10.815114      -294.2942 
  33   2.0000     -10.814985      -294.2907 
  34   2.0000     -10.813964      -294.2629 
  35   2.0000     -10.813883      -294.2607 
  36   2.0000      -1.105362       -30.0784 
  37   2.0000      -1.076254       -29.2864 
  38   2.0000      -1.072453       -29.1829 
  39   2.0000      -1.049521       -28.5589 
  40   2.0000      -1.040582       -28.3157 
  41   2.0000      -1.014914       -27.6172 
  42   2.0000      -1.002141       -27.2696 
  43   2.0000      -0.982714       -26.7410 
  44   2.0000      -0.965328       -26.2679 
  45   2.0000      -0.961171       -26.1548 
  46   2.0000      -0.938247       -25.5310 
  47   2.0000      -0.929357       -25.2891 
  48   2.0000      -0.925856       -25.1938 
  49   2.0000      -0.907087       -24.6831 
  50   2.0000      -0.894470       -24.3398 
  51   2.0000      -0.892386       -24.2831 
  52   2.0000      -0.878877       -23.9154 
  53   2.0000      -0.869306       -23.6550 
  54   2.0000      -0.799349       -21.7514 
  55   2.0000      -0.791954       -21.5502 
  56   2.0000      -0.788755       -21.4631 
  57   2.0000      -0.776914       -21.1409 
  58   2.0000      -0.761437       -20.7197 
  59   2.0000      -0.755686       -20.5633 
  60   2.0000      -0.744212       -20.2510 
  61   2.0000      -0.739989       -20.1361 
  62   2.0000      -0.714631       -19.4461 
  63   2.0000      -0.708553       -19.2807 
  64   2.0000      -0.697305       -18.9746 
  65   2.0000      -0.666303       -18.1310 
  66   2.0000      -0.653931       -17.7944 
  67   2.0000      -0.642521       -17.4839 
  68   2.0000      -0.641179       -17.4474 
  69   2.0000      -0.625345       -17.0165 
  70   2.0000      -0.617052       -16.7908 
  71   2.0000      -0.613747       -16.7009 
  72   2.0000      -0.608280       -16.5521 
  73   2.0000      -0.587744       -15.9933 
  74   2.0000      -0.583867       -15.8878 
  75   2.0000      -0.578920       -15.7532 
  76   2.0000      -0.563587       -15.3360 
  77   2.0000      -0.560290       -15.2463 
  78   2.0000      -0.554981       -15.1018 
  79   2.0000      -0.543108       -14.7787 
  80   2.0000      -0.542076       -14.7506 
  81   2.0000      -0.538887       -14.6639 
  82   2.0000      -0.533295       -14.5117 
  83   2.0000      -0.532219       -14.4824 
  84   2.0000      -0.524558       -14.2739 
  85   2.0000      -0.521404       -14.1881 
  86   2.0000      -0.519051       -14.1241 
  87   2.0000      -0.515966       -14.0402 
  88   2.0000      -0.509002       -13.8506 
  89   2.0000      -0.504349       -13.7240 
  90   2.0000      -0.500848       -13.6288 
  91   2.0000      -0.485972       -13.2240 
  92   2.0000      -0.481121       -13.0920 
  93   2.0000      -0.477427       -12.9915 
  94   2.0000      -0.473620       -12.8879 
  95   2.0000      -0.464499       -12.6397 
  96   2.0000      -0.460970       -12.5436 
  97   2.0000      -0.459101       -12.4928 
  98   2.0000      -0.449766       -12.2388 
  99   2.0000      -0.439795       -11.9674 
 100   2.0000      -0.435554       -11.8520 
 101   2.0000      -0.431960       -11.7542 
 102   2.0000      -0.430430       -11.7126 
 103   2.0000      -0.420249       -11.4355 
 104   2.0000      -0.408664       -11.1203 
 105   2.0000      -0.404686       -11.0121 
 106   2.0000      -0.395825       -10.7709 
 107   2.0000      -0.370700       -10.0873 
 108   2.0000      -0.360311        -9.8046 
 109   2.0000      -0.358485        -9.7549 
 110   2.0000      -0.336685        -9.1617 
 111   2.0000      -0.318918        -8.6782 
 112   2.0000      -0.310559        -8.4507 
 113   2.0000      -0.286183        -7.7874 
 114   2.0000      -0.274865        -7.4794 
 115   2.0000      -0.269263        -7.3270 
 116   2.0000      -0.250381        -6.8132 
 117   2.0000      -0.235323        -6.4035 
 118   0.0000      -0.006199        -0.1687 
 119   0.0000       0.009684         0.2635 
 120   0.0000       0.021668         0.5896 
 121   0.0000       0.031650         0.8613 
 122   0.0000       0.046028         1.2525 
 123   0.0000       0.067968         1.8495 
 124   0.0000       0.071195         1.9373 
 125   0.0000       0.071879         1.9559 
 126   0.0000       0.075423         2.0524 
 127   0.0000       0.077306         2.1036 
 128   0.0000       0.086413         2.3514 
*Only the first 10 virtual orbitals were printed.
-------
TIMINGS
-------

Total SCF time: 0 days 0 hours 9 min 19 sec 

Total time                  ....     559.900 sec
Sum of individual times     ....     559.584 sec  ( 99.9%)

SCF preparation             ....      17.561 sec  (  3.1%)
Fock matrix formation       ....     488.386 sec  ( 87.2%)
  Startup                   ....       4.112 sec  (  0.8% of F)
  RI-JK                     ....     450.155 sec  ( 92.2% of F)
  XC integration            ....      23.949 sec  (  4.9% of F)
    XC Preparation          ....       0.000 sec  (  0.0% of XC)
    Basis function eval.    ....       1.585 sec  (  6.6% of XC)
    Density eval.           ....       5.322 sec  ( 22.2% of XC)
    XC-Functional eval.     ....       0.044 sec  (  0.2% of XC)
    XC-Potential eval.      ....       6.757 sec  ( 28.2% of XC)
Diagonalization             ....       0.000 sec  (  0.0%)
Density matrix formation    ....       7.259 sec  (  1.3%)
Total Energy calculation    ....       3.590 sec  (  0.6%)
Population analysis         ....       0.000 sec  (  0.0%)
Orbital Transformation      ....       4.851 sec  (  0.9%)
Orbital Orthonormalization  ....       0.000 sec  (  0.0%)
DIIS solution               ....      28.903 sec  (  5.2%)
SOSCF solution              ....       8.645 sec  (  1.5%)
Finished LeanSCF after 561.0 sec

Maximum memory used throughout the entire LEANSCF-calculation: 1297.6 MB


           ************************************************************
           *        Program running with 104 parallel MPI-processes   *
           *              working on a common directory               *
           ************************************************************

------------------------------------------------------------------------------
                                ORCA  MP2 
------------------------------------------------------------------------------


-------------
RI-MP2 ENERGY
-------------
Dimension of the orbital basis            ... 2652
Dimension of the AuxC basis               ... 6196
Memory devoted to MP2                     ... 4096 MB   
Data format for matrix containers         ... DOUBLE
Compression type for matrix containers    ... UNCOMPRESSED
Scaling for aa/bb pairs                   ...   5.710e-02
Scaling for ab pairs                      ...   5.979e-01
Overall scaling of the MP2 energy         ...   1.000e+00

-----------------------
SHARK RI TRANSFORMATION
-----------------------

Number of basis functions                ...   2652
Number of aux functions                  ...   6196
Number of operators                      ...      1
Generation of IJK                        ... NO
Generation of IAK                        ... YES
Generation of ABK                        ... NO
Orbital Range Operator  0:    0- 117 to  118-2651

Aux basis identifier                     ...   AUXC
Contraction scheme used                  ... SEGMENTED
Do orthogonalization                     ... YES
All operator combinations                ... NO
Transpose (ia|K)                         ... NO
Integral generator used                  ... LIBINT
Starting integral generation + trafo... 
Half trafo (segmented) done. Total time = 16.6 sec. integrals=  3.4 sec trafo= 12.3 sec
Integral generation and half transformation done ( 16.6 sec)

Reading or making V^(-1/2)          ... done (  0.7 sec)
Sorting IAK integrals               ... done ( 18.9 sec)

SHARK RI integral transformation done. Total time = 36.5 sec.

Opening buffers                              ... done

Starting loop over batches of integrals:

Operator 0  - window                       ... (  0-117)x(118-2651)
Operator 0  - Memory available             ...  4096 MB
Operator 0  - Memory needed per MO         ... 119.8 MB
Operator 0  - Number of orbitals per batch ... 2
Operator 0  - Number of batches            ... 1

OPERATOR  0   PASS   0:  MOs     0 ...    1 +    2 ...    3 +    4 ...    5 +    6 ...    7
                            +    8 ...    9 +   10 ...   11 +   12 ...   13 +   14 ...   15
                            +   16 ...   17 +   18 ...   19 +   20 ...   21 +   22 ...   23
                            +   24 ...   25 +   26 ...   27 +   28 ...   29 +   30 ...   31
                            +   32 ...   33 +   34 ...   35 +   36 ...   37 +   38 ...   39
                            +   40 ...   41 +   42 ...   43 +   44 ...   45 +   46 ...   47
                            +   48 ...   49 +   50 ...   51 +   52 ...   53 +   54 ...   55
                            +   56 ...   57 +   58 ...   59 +   60 ...   61 +   62 ...   63
                            +   64 ...   65 +   66 ...   67 +   68 ...   69 +   70 ...   71
                            +   72 ...   73 +   74 ...   75 +   76 ...   77 +   78 ...   79
                            +   80 ...   81 +   82 ...   83 +   84 ...   85 +   86 ...   87
                            +   88 ...   89 +   90 ...   91 +   92 ...   93 +   94 ...   95
                            +   96 ...   97 +   98 ...   99 +  100 ...  101 +  102 ...  103
                            +  104 ...  105 +  106 ...  107 +  108 ...  109 +  110 ...  111
                            +  112 ...  113 +  114 ...  115 +  116 ...  117
  Reading integrals       ... ok
Time spent in pair loops =   339.362 sec

-----------------------------------------------
 RI-MP2 CORRELATION ENERGY:     -3.553830021 Eh
-----------------------------------------------


-------
TIMINGS
-------

Total time                :  382.851 sec
Integral trafo            :   36.904 sec (  9.6%)
I/O of integrals          :    0.305 sec (  0.1%)
K(i,j) operators          :    4.342 sec (  1.1%)
T(i,j) pair energies      :    0.448 sec (  0.1%)
V**(-1/2)                 :    6.583 sec (  1.7%)


---------------------------------------
MP2 TOTAL ENERGY:    -1382.287230569 Eh
---------------------------------------

Maximum memory used throughout the entire MP2-calculation: 960.0 MB


-------------------------------------------------------------------------------
                          DFT DISPERSION CORRECTION                            
                                                                               
                                DFTD4 V3.4.0                                   
-------------------------------------------------------------------------------
The REV-DSD-PBEP86-2021 functional is recognized
A user input s6-coefficient scaling factor has been recognized
A user input a1-coefficient scaling factor has been recognized
A user input s8-coefficient scaling factor has been recognized
A user input a2-coefficient scaling factor has been recognized
A user input s9-coefficient scaling factor has been recognized
Active option DFTDOPT                   ...         5   

-------------------------   ----------------
Dispersion correction           -0.061770540
-------------------------   ----------------


-------------------------   --------------------
FINAL SINGLE POINT ENERGY     -1382.349001109212
-------------------------   --------------------



           ************************************************************
           *        Program running with 104 parallel MPI-processes   *
           *              working on a common directory               *
           ************************************************************

------------------------------------------------------------------------------
                              ORCA PROPERTY CALCULATIONS
------------------------------------------------------------------------------

GBWName                                 ... compas3x_hc_c36h20_0pent_2_qz_riri.gbw
Number of atoms                         ...     56
Number of basis functions               ...   2652
Max core memory                         ...   1024 MB

Electric properties:
Dipole moment                           ... YES
Quadrupole moment                       ...  NO
Static polarizability (Dipole/Dipole)   ...  NO
Static polarizability (Dipole/Quad.)    ...  NO
Static polarizability (Quad./Quad.)     ...  NO
Static polarizability (Velocity)        ...  NO

Atomic electric properties:
Dipole moment                           ...  NO
Quadrupole moment                       ...  NO
Static polarizability                   ...  NO

Choice of electric origin               ... Center of mass
Position of electric origin             ...     0.089221    -0.113832    -0.044488

General magnetic properties:
Magnetizability                         ...  NO

EPR properties:
g-Tensor (aka g-matrix)                 ...  NO
Zero-Field splitting spin-orbit         ...  NO
Zero-field splitting spin-spin          ...  NO
Hyperfine couplings                     ...  NO (   0 nuclei)
Quadrupole couplings                    ...  NO (   0 nuclei)
Contact density                         ...  NO (   0 nuclei)

NMR properties:
Chemical shifts                         ...  NO (   0 nuclei)
Spin-rotation constants                 ...  NO (   0 nuclei)
Spin-spin couplings                     ...  NO (   0 nuclei,    0 pairs)

Choice of magnetic origin               ... GIAO
Position of magnetic origin             ...     0.000000     0.000000     0.000000

Properties with geometric perturbations:
SCF Hessian                             ...  NO
IR spectrum                             ...  NO
VCD spectrum                            ...  NO
X-ray spectroscopy properties:
SCF XES/XAS/RIXS spectra                ...  NO


-------------
DIPOLE MOMENT
-------------

Method             : SCF
Type of density    : Electron Density
Multiplicity       :   1
Irrep              :   0
Energy             : -1378.7334005479169718 Eh
Relativity type    : 
Basis              : AO
                                X                 Y                 Z
Electronic contribution:      2.692482001      -3.421184709      -1.332480751
Nuclear contribution   :     -2.707738236       3.454655835       1.350171050
                        -----------------------------------------
Total Dipole Moment    :     -0.015256235       0.033471126       0.017690299
                        -----------------------------------------
Magnitude (a.u.)       :      0.040816856
Magnitude (Debye)      :      0.103748202



--------------------
Rotational spectrum 
--------------------
 
Rotational constants in cm-1:             0.006533             0.003289             0.002458 
Rotational constants in MHz :           195.841173            98.589665            73.684018 

Dipole components along the rotational axes: 
x,y,z [a.u.] :     0.039833     0.003030     0.008377 
x,y,z [Debye]:     0.101247     0.007701     0.021293 

 

Dipole moment calculation done in   0.5 sec 

Maximum memory used throughout the entire PROP-calculation: 439.8 MB

--------------------------------
SUGGESTED CITATIONS FOR THIS RUN
--------------------------------

Below you find a list of papers that are relevant to this ORCA run
We neither can nor want to force you to cite these papers, but we appreciate if you do
You receive ORCA, which is the product of decades of hard work by many enthusiastic individuals, for free
The only thing we kindly ask in return is that you cite our papers,
We deeply appreciate it, if you show your appreciation for ORCA by not just citing the generic ORCA reference.

Please note that relegating all ORCA citations to the supporting information does *not* help us.
SI sections are not indexed - citations you put there will not count into any citation statistics
But we need these citations in order to attract the funding resources that allow us to do what we are doing

Therefore, if you are a happy ORCA user, please consider citing a few of the papers listed below in the main body of your paper

In addition to the list printed below, the program has created the file compas3x_hc_c36h20_0pent_2_qz_riri.bibtex that contains the list in bibtex format
You can import this file easily into all common literature databanks and citation aid programs


List of essential papers. We consider these as the minimum necessary citations

  1. Neese,F.
     Software update: the ORCA program system, version 5.0
     WIRES Comput. Molec. Sci., 2022 12(1)e1606
     doi.org/10.1002/wcms.1606

List of papers to cite with high priority. The work reported in these papers was absolutely
necessary for this run to complete.
Our perspective: the developers of density functionals and basis sets usually get cited in chemistry papers
Good! But without the algorithms to do something with them, the functionals or basis sets would not do anything.
Hence, in our opinion, the algorithm design and method developments papers are equally worthy of getting cited

  1. Neese,F.
     An improvement of the resolution of the identity approximation for the formation of the Coulomb matrix
     J. Comp. Chem., 2003 24(14)1740-1747
     doi.org/10.1002/jcc.10318
  2. Kossmann,S.; Neese,F.
     Comparison of two efficient approximate Hartee-Fock approaches
     Chem. Phys. Lett., 2009 481 240-243
     doi.org/10.1016/j.cplett.2009.09.073
  3. Neese,F.
     The SHARK Integral Generation and Digestion System
     J. Comp. Chem., 2022  1-16
     doi.org/10.1002/jcc.26942
  4. Caldeweyher,E.; Bannwarth,C.; Grimme,S.
     Extension of the D3 dispersion coefficient model
     J. Chem. Phys., 2017 147 034112
     doi.org/10.1063/1.4993215
  5. Caldeweyher,E.; Ehlert,S.; Hansen,A.; Neugebauer,H.; Spicher,S.; Bannwarth,C.; Grimme,S.
     A generally applicable atomic-charge dependent London dispersion correction
     J. Chem. Phys., 2019 150 154122
     doi.org/10.1063/1.5090222
  6. Caldeweyher,E.; Mewes,J.; Ehlert,S.; Grimme,S.
     Extension and evaluation of the D4 London-dispersion model for periodic systems
     Phys. Chem. Chem. Phys., 2020 22(16)8499-8512
     doi.org/10.1039/D0CP00502A
  7. Wittmann,L.; Gordiy,I.; Friede,M.; Helmich-Paris,B.; Grimme,S.; Hansen,A.; Bursch,M.
     Extension of the D3 and D4 London Dispersion Corrections to the full Actinides Series
     Phys. Chem. Chem. Phys., 2024 26(32)21379-21394
     doi.org/https://doi.org/10.1039/D4CP01514B 

List of suggested additional citations. These are papers that are important in the 'surrounding' of 
of this run, or papers that preceded the highly important papers. If you like your results we are grateful for a citation.

  1. Neese,F.
     The ORCA program system
     WIRES Comput. Molec. Sci., 2012 2(1)73-78
     doi.org/10.1002/wcms.81
  2. Neese,F.
     Software update: the ORCA program system, version 4.0
     WIRES Comput. Molec. Sci., 2018 8(1)1-6
     doi.org/10.1002/wcms.1327
  3. Neese,F.; Wennmohs,F.; Becker,U.; Riplinger,C.
     The ORCA quantum chemistry program package
     J. Chem. Phys., 2020 152 Art. No. L224108
     doi.org/10.1063/5.0004608

List of optional additional citations

  1. Neese,F.
     Approximate second-order SCF convergence for spin unrestricted wavefunctions
     Chem. Phys. Lett., 2000 325(1-3)93-98
     doi.org/10.1016/s0009-2614(00)00662-x

Timings for individual modules:

Sum of individual times          ...     1042.972 sec (=  17.383 min)
Startup calculation              ...       34.767 sec (=   0.579 min)   3.3 %
SCF iterations                   ...      586.200 sec (=   9.770 min)  56.2 %
Property calculations            ...       18.553 sec (=   0.309 min)   1.8 %
MP2 module                       ...      403.452 sec (=   6.724 min)  38.7 %
                             ****ORCA TERMINATED NORMALLY****
TOTAL RUN TIME: 0 days 0 hours 17 minutes 51 seconds 929 msec
