
                                 *****************
                                 * O   R   C   A *
                                 *****************

                                            #,                                       
                                            ###                                      
                                            ####                                     
                                            #####                                    
                                            ######                                   
                                           ########,                                 
                                     ,,################,,,,,                         
                               ,,#################################,,                 
                          ,,##########################################,,             
                       ,#########################################, ''#####,          
                    ,#############################################,,   '####,        
                  ,##################################################,,,,####,       
                ,###########''''           ''''###############################       
              ,#####''   ,,,,##########,,,,          '''####'''          '####       
            ,##' ,,,,###########################,,,                        '##       
           ' ,,###''''                  '''############,,,                           
         ,,##''                                '''############,,,,        ,,,,,,###''
      ,#''                                            '''#######################'''  
     '                                                          ''''####''''         
             ,#######,   #######,   ,#######,      ##                                
            ,#'     '#,  ##    ##  ,#'     '#,    #''#        ,####,   ,####,        
            ##       ##  ##   ,#'  ##            #'  '#       #'       #'  '#        
            ##       ##  #######   ##           ,######,      #####,   #    #        
            '#,     ,#'  ##    ##  '#,     ,#' ,#      #,     #,   #   #,  ,#        
             '#######'   ##     ##  '#######'  #'      '#     '####' # '####'        



                #########################################################
                #                        -***-                          #
                #          Department of theory and spectroscopy        #
                #                                                       #
                #                      Frank Neese                      #
                #                                                       #
                #     Directorship, Architecture, Infrastructure        #
                #                    SHARK, DRIVERS                     #
                #        Core code/Algorithms in most modules           #
                #                                                       #
                #        Max Planck Institute fuer Kohlenforschung      #
                #                Kaiser Wilhelm Platz 1                 #
                #                 D-45470 Muelheim/Ruhr                 #
                #                      Germany                          #
                #                                                       #
                #                  All rights reserved                  #
                #                        -***-                          #
                #########################################################


                         Program Version 6.0.1  -  RELEASE   -


 With contributions from (in alphabetic order):
[Max-Planck-Institut fuer Kohlenforschung]                               
  Daniel Aravena         : Magnetic Suceptibility                        
  Michael Atanasov       : Ab Initio Ligand Field Theory (pilot matlab implementation)
  Alexander A. Auer      : GIAO ZORA, VPT2 properties, NMR spectrum      
  Ute Becker             : All parallelization in ORCA, NUMFREQ, NUMCALC 
  Giovanni Bistoni       : ED, misc. LED, open-shell LED, HFLD           
  Martin Brehm           : Molecular dynamics                            
  Dmytro Bykov           : pre 5.0 version of the SCF Hessian            
  Marcos Casanova-Páez   : Triplet and SCS-CIS(D). UHF-(DLPNO)-IP/EA/STEOM-CCSD. UHF-CVS-IP/STEOM-CCSD   
  Vijay G. Chilkuri      : MRCI spin determinant printing, contributions to CSF-ICE 
  Pauline Colinet        : FMM embedding                                 
  Dipayan Datta          : RHF DLPNO-CCSD density                        
  Achintya Kumar Dutta   : EOM-CC, STEOM-CC                              
  Nicolas Foglia         : Exact transition moments, OPA infrastructure, MCD improvements    
  Dmitry Ganyushin       : Spin-Orbit,Spin-Spin,Magnetic field MRCI      
  Miquel Garcia-Rates    : C-PCM and meta-GGA Hessian, CCSD/C-PCM, Gaussian charge scheme 
  Tiago L. C. Gouveia    : GS-ROHF, GS-ROCIS                             
  Yang Guo               : DLPNO-NEVPT2, F12-NEVPT2, CIM, IAO-localization        
  Andreas Hansen         : Spin unrestricted coupled pair/coupled cluster methods 
  Ingolf Harden          : AUTO-CI MPn and infrastructure                
  Benjamin Helmich-Paris : MC-RPA, TRAH-(SCF,CASSCF), AVAS, COSX integrals, SCF dyn. polar. 
  Lee Huntington         : MR-EOM, pCC                                   
  Robert Izsak           : Overlap fitted RIJCOSX, COSX-SCS-MP3, EOM     
  Riya Kayal             : Wick's Theorem for AUTO-CI, AUTO-CI UHF-CCSDT 
  Emily Kempfer          : AUTO-CI, RHF CISDT and CCSDT                  
  Christian Kollmar      : KDIIS, OOCD, Brueckner-CCSD(T), CCSD density, CASPT2, CASPT2-K, improved NEVPT2 
  Axel Koslowski         : Symmetry handling                             
  Simone Kossmann        : meta-GGA functionals, TD-DFT gradient, OOMP2, (MP2 Hessian; deprecated post 5.0) 
  Lucas Lang             : DCDCAS                                        
  Marvin Lechner         : AUTO-CI (C++ implementation), FIC-MRCC        
  Spencer Leger          : CASSCF response                               
  Dagmar Lenk            : GEPOL surface, SMD, ORCA-2-JSON               
  Dimitrios Liakos       : Extrapolation schemes; Compound Job, initial MDCI parallelization 
  Dimitrios Manganas     : Further ROCIS development; embedding schemes. LFT, Crystal Embedding 
  Dimitrios Pantazis     : SARC Basis sets                               
  Anastasios Papadopoulos: AUTO-CI, single reference methods and gradients 
  Taras Petrenko         : pre 6.0 DFT Hessian and TD-DFT gradient, (ASA, deprecated), ECA, 1-Electron XAS/XES, NRVS 
  Peter Pinski           : DLPNO-MP2, DLPNO-MP2 Gradient                 
  Christoph Reimann      : Effective Core Potentials                     
  Marius Retegan         : Local ZFS, SOC                                
  Christoph Riplinger    : Optimizer, TS searches, QM/MM, DLPNO-CCSD(T), (RO)-DLPNO pert. Triples 
  Michael Roemelt        : Original ROCIS implementation                 
  Masaaki Saitow         : Open-shell DLPNO-CCSD energy and density      
  Barbara Sandhoefer     : DKH picture change effects                    
  Kantharuban Sivalingam : CASSCF convergence/infrastructure, NEVPT2 and variants, FIC-MRCI 
  Bernardo de Souza      : ESD, SOC TD-DFT                               
  Georgi L. Stoychev     : AutoAux, RI-MP2 NMR, DLPNO-MP2 response, X2C  
  Van Anh Tran           : RI-MP2 g-tensors                              
  Willem Van den Heuvel  : Paramagnetic NMR                              
  Zikuan Wang            : NOTCH, Electric field optimization            
  Frank Wennmohs         : Technical directorship and infrastructure     
  Hang Xu                : AUTO-CI-Response properties                   
                                                                         
[FACCTs GmbH]                                                            
  Markus Bursch, Miquel Garcia-Rates, Christoph Riplinger, Bernardo de Souza, Georgi L. Stoychev 
                                                                 
  APM, Basis sets (HGBS, AHGBS, def-TZVP (Ac-Lr), def2-XVPD (La-Lu)), CI-OPT, improved COSX, DLPNO-Multilevel,           
  DOCKER, DRACO, updates on ESD, GOAT, IRC, LR-CPCM, MBIS, meta-GGA TD-DFT gradient, ML-optimized integration grids, 
  MM, NACMEs, nearIR, NEB, NEB-TS, NL-DFT gradient (VV10), 2- and 3-layer-ONIOM, interface openCOSMO-RS, QMMM,   
  Crystal-QMMM, SF, symmetry and pop. for TD-DFT, r2SCAN hybrids, SOLVATOR                                   
                                                                         
[Other institutions]                                                     
  V. Asgeirsson          : NEB                                           
  Christoph Bannwarth    : sTDA-DFT, sTD-DFT, PBEh-3c, B97-3c, D3        
  Sebastian Ehlert       : rSCAN, r2SCAN, r2SCAN-3c, D4, dhf basis sets  
  Marvin Friede          : D4 for Fr, Ra, Ac-Lr                          
  Lars Goerigk           : TD-DFT with DH, B97 family of functionals     
  Stefan Grimme          : VdW corrections, initial TS optimization, DFT functionals, gCP, sTDA/sTD-DF 
  Waldemar Hujo          : DFT-NL                                        
  H. Jonsson             : NEB                                           
  Holger Kruse           : gCP                                           
  Marcel Mueller         : wB97X-3c, vDZP basis set                      
  Hagen Neugebauer       : wr2SCAN                                       
  Tobias Risthaus        : range-separated hybrid DFT                    
  Lukas Wittmann         : regularized MP2, r2SCAN double-hybrids, wr2SCAN        
                                                                         
We gratefully acknowledge several colleagues who have allowed us to      
interface, adapt or use parts of their codes:                            
  Ed Valeev, F. Pavosevic, A. Kumar             : LibInt (2-el integral package), F12 methods 
  Garnet Chan, S. Sharma, J. Yang, R. Olivares  : DMRG                   
  Ulf Ekstrom                                   : XCFun DFT Library      
  Mihaly Kallay                                 : mrcc  (arbitrary order and MRCC methods)
  Frank Weinhold                                : gennbo (NPA and NBO analysis)           
  Simon Mueller                                 : openCOSMO-RS                            
  Christopher J. Cramer and Donald G. Truhlar   : smd solvation model                     
  S Lehtola, MJT Oliveira, MAL Marques          : LibXC Library                           
  Liviu Ungur et al                             : ANISO software                          


 Your calculation uses the libint2 library for the computation of 2-el integrals
 For citations please refer to: http://libint.valeyev.net

 Your ORCA version has been built with support for libXC version: 6.2.2
 For citations please refer to: https://libxc.gitlab.io

 This ORCA versions uses:
   CBLAS   interface :  Fast vector & matrix operations
   LAPACKE interface :  Fast linear algebra routines
   SCALAPACK package :  Parallel linear algebra routines
   Shared memory     :  Shared parallel matrices
   BLAS/LAPACK       :  OpenBLAS 0.3.27  USE64BITINT DYNAMIC_ARCH NO_AFFINITY SapphireRapids SINGLE_THREADED
        Core in use  :  SapphireRapids
   Copyright (c) 2011-2014, The OpenBLAS Project




***************************************
The coordinates will be read from file: /scratch/kx58/rs2200/dhdft/inputs/compas3x-xyzs/hc_c24h14_0pent_6.xyz
***************************************


Your calculation utilizes the atom-pairwise dispersion correction
based on EEQ partial charges (D4)


================================================================================

----- Orbital basis set information -----
Your calculation utilizes the basis: def2-QZVPP
   F. Weigend and R. Ahlrichs, Phys. Chem. Chem. Phys. 7, 3297 (2005).

================================================================================
                                        WARNINGS
                       Please study these warnings very carefully!
================================================================================


WARNING: No MP2 level density has been requested!
         To calculate MP2 level properties use
         %mp2 Density relaxed end
         or
         %mp2 Density unrelaxed end
         Otherwise for double-hybrid DFT only the energy is correct!

================================================================================
                                       INPUT FILE
================================================================================
NAME = compas3x_hc_c24h14_0pent_6_qz_nori.inp
|  1> ! RKS revDSD-PBEP86-D4/2021 defgrid3  NORI NOPOP NoFrozencore NoUseSym
|  2> 
|  3> %basis
|  4> Basis "def2-QZVPP"
|  5> 
|  6> 
|  7> end
|  8> 
|  9> %method
| 10> ScalHFX 0.69
| 11> ScalDFX 0.31
| 12> ScalDFC 0.4038
| 13> ScalLDAC 0.4038
| 14> 
| 15> D4S6 0.4612
| 16> D4S8 0.0
| 17> D4A1 0.44
| 18> D4A2 3.60
| 19> end
| 20> 
| 21> %mp2
| 22> PS 0.5979
| 23> PT 0.0571
| 24> MaxCore 45000
| 25> Q1Opt 1
| 26> 
| 27> end
| 28> 
| 29> %pal
| 30> nprocs 10
| 31> end
| 32> 
| 33> *XYZFILE 0 1 /scratch/kx58/rs2200/dhdft/inputs/compas3x-xyzs/hc_c24h14_0pent_6.xyz
| 34> 
| 35>                          ****END OF INPUT****
================================================================================

                       ****************************
                       * Single Point Calculation *
                       ****************************

---------------------------------
CARTESIAN COORDINATES (ANGSTROEM)
---------------------------------
  C      0.489828    0.636244    0.020363
  C     -0.754651    1.291770   -0.004830
  C     -0.822890    2.707573    0.000699
  C      0.365630    3.475832    0.033003
  C      1.605013    2.792248    0.060404
  C      1.661057    1.433827    0.054119
  C      0.538008   -0.802440    0.011018
  C     -0.695467   -1.533460   -0.019742
  C     -1.920847   -0.834951   -0.041952
  C     -1.973560    0.537475   -0.036591
  C     -3.221102    1.239093   -0.062214
  C     -3.272605    2.585957   -0.057882
  C     -2.076725    3.371465   -0.026353
  C     -2.113512    4.760740   -0.021640
  C     -0.941261    5.505028    0.009743
  C      0.282310    4.875940    0.037054
  C      1.723405   -1.527254    0.028898
  C      1.747021   -2.922180    0.018241
  C      0.516063   -3.644541   -0.010875
  C     -0.674867   -2.927455   -0.028909
  C      2.961742   -3.651057    0.034974
  C      2.959556   -5.012975    0.023676
  C      1.742588   -5.726093   -0.004624
  C      0.554523   -5.061793   -0.021309
  H      2.514478    3.375942    0.086532
  H      2.628020    0.956962    0.076041
  H     -2.838728   -1.406350   -0.064943
  H     -4.126667    0.649154   -0.085805
  H     -4.219975    3.106084   -0.077985
  H     -3.070163    5.263233   -0.042797
  H     -0.994325    6.584216    0.012727
  H      1.194947    5.454112    0.061780
  H      2.675709   -1.019849    0.050984
  H     -1.614044   -3.463342   -0.051676
  H      3.892592   -3.101741    0.056714
  H      3.889964   -5.561827    0.036245
  H      1.766635   -6.806121   -0.012978
  H     -0.381700   -5.601464   -0.043108

----------------------------
CARTESIAN COORDINATES (A.U.)
----------------------------
  NO LB      ZA    FRAG     MASS         X           Y           Z
   0 C     6.0000    0    12.011    0.925641    1.202327    0.038481
   1 C     6.0000    0    12.011   -1.426084    2.441091   -0.009127
   2 C     6.0000    0    12.011   -1.555036    5.116571    0.001321
   3 C     6.0000    0    12.011    0.690941    6.568370    0.062366
   4 C     6.0000    0    12.011    3.033035    5.276583    0.114148
   5 C     6.0000    0    12.011    3.138942    2.709541    0.102270
   6 C     6.0000    0    12.011    1.016687   -1.516392    0.020822
   7 C     6.0000    0    12.011   -1.314242   -2.897820   -0.037306
   8 C     6.0000    0    12.011   -3.629875   -1.577829   -0.079278
   9 C     6.0000    0    12.011   -3.729487    1.015681   -0.069148
  10 C     6.0000    0    12.011   -6.087000    2.341546   -0.117568
  11 C     6.0000    0    12.011   -6.184327    4.886751   -0.109381
  12 C     6.0000    0    12.011   -3.924441    6.371146   -0.049800
  13 C     6.0000    0    12.011   -3.993959    8.996494   -0.040894
  14 C     6.0000    0    12.011   -1.778726   10.402995    0.018411
  15 C     6.0000    0    12.011    0.533489    9.214192    0.070021
  16 C     6.0000    0    12.011    3.256764   -2.886093    0.054610
  17 C     6.0000    0    12.011    3.301390   -5.522120    0.034471
  18 C     6.0000    0    12.011    0.975218   -6.887184   -0.020551
  19 C     6.0000    0    12.011   -1.275313   -5.532088   -0.054631
  20 C     6.0000    0    12.011    5.596881   -6.899497    0.066091
  21 C     6.0000    0    12.011    5.592751   -9.473150    0.044741
  22 C     6.0000    0    12.011    3.293014  -10.820747   -0.008739
  23 C     6.0000    0    12.011    1.047897   -9.565402   -0.040268
  24 H     1.0000    0     1.008    4.751675    6.379606    0.163522
  25 H     1.0000    0     1.008    4.966238    1.808396    0.143697
  26 H     1.0000    0     1.008   -5.364418   -2.657616   -0.122724
  27 H     1.0000    0     1.008   -7.798271    1.226722   -0.162148
  28 H     1.0000    0     1.008   -7.974597    5.869648   -0.147370
  29 H     1.0000    0     1.008   -5.801768    9.946068   -0.080875
  30 H     1.0000    0     1.008   -1.879002   12.442365    0.024050
  31 H     1.0000    0     1.008    2.258123   10.306778    0.116747
  32 H     1.0000    0     1.008    5.056357   -1.927235    0.096346
  33 H     1.0000    0     1.008   -3.050101   -6.544768   -0.097654
  34 H     1.0000    0     1.008    7.355933   -5.861441    0.107174
  35 H     1.0000    0     1.008    7.350967  -10.510329    0.068493
  36 H     1.0000    0     1.008    3.338456  -12.861705   -0.024526
  37 H     1.0000    0     1.008   -0.721308  -10.585233   -0.081462

--------------------------------
INTERNAL COORDINATES (ANGSTROEM)
--------------------------------
 C      0   0   0     0.000000000000     0.00000000     0.00000000
 C      1   0   0     1.406796701440     0.00000000     0.00000000
 C      2   1   0     1.417457090008   120.52697123     0.00000000
 C      3   2   1     1.415572046468   120.11621016   359.94102099
 C      4   3   2     1.415665048420   118.25731661   359.94374504
 C      5   4   3     1.359590623192   121.22862379     0.09389040
 C      1   2   3     1.439520738595   119.68235017   180.14848544
 C      7   1   2     1.434153628997   118.73631789   359.80449759
 C      8   7   1     1.410661166966   119.67292103     0.08844586
 C      9   8   7     1.373448751370   121.87535202     0.07610548
 C     10   9   8     1.431532323788   121.54232821   179.86073610
 C     11  10   9     1.347855760957   121.53359099   180.04654684
 C      3   2   1     1.419009327298   120.64875723   179.92084452
 C     13   3   2     1.389769457605   119.40725474   180.06834680
 C     14  13   3     1.388928332270   120.89172529   359.97097942
 C     15  14  13     1.376090312401   120.39269488     0.00000000
 C      7   1   2     1.389547679851   123.35221228   179.73431779
 C     17   7   1     1.395166246253   122.40297045   180.05578695
 C     18  17   7     1.427553628813   119.43829436   359.94389355
 C     19  18  17     1.390269867709   118.54943858     0.05331830
 C     18  17   7     1.416717506486   121.92555143   179.91898942
 C     21  18  17     1.361967360308   120.86322519   180.02082917
 C     22  21  18     1.410797233779   120.46445886     0.00000000
 C     23  22  21     1.361275717172   120.42614673     0.00000000
 H      5   4   3     1.080975946355   118.44425973   180.08595968
 H      6   5   4     1.078378125928   118.60012438   180.01352760
 H      9   8   7     1.081448125438   118.42322748   180.00359686
 H     11  10   9     1.081033601643   117.57734699     0.00000000
 H     12  11  10     1.080946365582   120.94752523   179.96333466
 H     14  13   3     1.080799735165   119.21739857   179.96961610
 H     15  14  13     1.080495736551   119.59309506   179.99487289
 H     16  15  14     1.080648143598   120.45024261   180.01834002
 H     17   7   1     1.079273162203   120.51429494     0.00000000
 H     20  19  18     1.081548305078   119.24628798   179.95985888
 H     21  18  17     1.081065342855   118.49595670     0.00000000
 H     22  21  18     1.080302942107   120.43472839   179.98002033
 H     23  22  21     1.080328341759   119.09673235   180.00793216
 H     24  23  22     1.080848617298   120.83482281   179.99386552

---------------------------
INTERNAL COORDINATES (A.U.)
---------------------------
 C      0   0   0     0.000000000000     0.00000000     0.00000000
 C      1   0   0     2.658460491825     0.00000000     0.00000000
 C      2   1   0     2.678605706701   120.52697123     0.00000000
 C      3   2   1     2.675043490660   120.11621016   359.94102099
 C      4   3   2     2.675219238879   118.25731661   359.94374504
 C      5   4   3     2.569253932081   121.22862379     0.09389040
 C      1   2   3     2.720299960045   119.68235017   180.14848544
 C      7   1   2     2.710157592773   118.73631789   359.80449759
 C      8   7   1     2.665763273324   119.67292103     0.08844586
 C      9   8   7     2.595441999066   121.87535202     0.07610548
 C     10   9   8     2.705204043815   121.54232821   179.86073610
 C     11  10   9     2.547078256236   121.53359099   180.04654684
 C      3   2   1     2.681539010073   120.64875723   179.92084452
 C     13   3   2     2.626283664162   119.40725474   180.06834680
 C     14  13   3     2.624694167634   120.89172529   359.97097942
 C     15  14  13     2.600433825980   120.39269488     0.00000000
 C      7   1   2     2.625864564944   123.35221228   179.73431779
 C     17   7   1     2.636482116710   122.40297045   180.05578695
 C     18  17   7     2.697685399942   119.43829436   359.94389355
 C     19  18  17     2.627229302213   118.54943858     0.05331830
 C     18  17   7     2.677208096390   121.92555143   179.91898942
 C     21  18  17     2.573745314321   120.86322519   180.02082917
 C     22  21  18     2.666020402336   120.46445886     0.00000000
 C     23  22  21     2.572438298212   120.42614673     0.00000000
 H      5   4   3     2.042748495967   118.44425973   180.08595968
 H      6   5   4     2.037839326815   118.60012438   180.01352760
 H      9   8   7     2.043640785120   118.42322748   180.00359686
 H     11  10   9     2.042857448672   117.57734699     0.00000000
 H     12  11  10     2.042692596408   120.94752523   179.96333466
 H     14  13   3     2.042415505077   119.21739857   179.96961610
 H     15  14  13     2.041841030951   119.59309506   179.99487289
 H     16  15  14     2.042129038531   120.45024261   180.01834002
 H     17   7   1     2.039530700256   120.51429494     0.00000000
 H     20  19  18     2.043830097205   119.24628798   179.95985888
 H     21  18  17     2.042917430870   118.49595670     0.00000000
 H     22  21  18     2.041476702252   120.43472839   179.98002033
 H     23  22  21     2.041524700637   119.09673235   180.00793216
 H     24  23  22     2.042507878920   120.83482281   179.99386552

---------------------
BASIS SET INFORMATION
---------------------
There are 2 groups of distinct atoms

 Group   1 Type C   : 15s8p3d2f1g contracted to 7s4p3d2f1g pattern {8211111/5111/111/11/1}
 Group   2 Type H   : 7s3p2d1f contracted to 4s3p2d1f pattern {4111/111/11/1}

Atom   0C    basis set group =>   1
Atom   1C    basis set group =>   1
Atom   2C    basis set group =>   1
Atom   3C    basis set group =>   1
Atom   4C    basis set group =>   1
Atom   5C    basis set group =>   1
Atom   6C    basis set group =>   1
Atom   7C    basis set group =>   1
Atom   8C    basis set group =>   1
Atom   9C    basis set group =>   1
Atom  10C    basis set group =>   1
Atom  11C    basis set group =>   1
Atom  12C    basis set group =>   1
Atom  13C    basis set group =>   1
Atom  14C    basis set group =>   1
Atom  15C    basis set group =>   1
Atom  16C    basis set group =>   1
Atom  17C    basis set group =>   1
Atom  18C    basis set group =>   1
Atom  19C    basis set group =>   1
Atom  20C    basis set group =>   1
Atom  21C    basis set group =>   1
Atom  22C    basis set group =>   1
Atom  23C    basis set group =>   1
Atom  24H    basis set group =>   2
Atom  25H    basis set group =>   2
Atom  26H    basis set group =>   2
Atom  27H    basis set group =>   2
Atom  28H    basis set group =>   2
Atom  29H    basis set group =>   2
Atom  30H    basis set group =>   2
Atom  31H    basis set group =>   2
Atom  32H    basis set group =>   2
Atom  33H    basis set group =>   2
Atom  34H    basis set group =>   2
Atom  35H    basis set group =>   2
Atom  36H    basis set group =>   2
Atom  37H    basis set group =>   2


           ************************************************************
           *        Program running with 10 parallel MPI-processes    *
           *              working on a common directory               *
           ************************************************************
------------------------------------------------------------------------------
                             ORCA STARTUP CALCULATIONS
------------------------------------------------------------------------------
------------------------------------------------------------------------------
                   ___                                                        
                  /   \      - P O W E R E D   B Y -                         
                 /     \                                                     
                 |  |  |   _    _      __       _____    __    __             
                 |  |  |  | |  | |    /  \     |  _  \  |  |  /  |          
                  \  \/   | |  | |   /    \    | | | |  |  | /  /          
                 / \  \   | |__| |  /  /\  \   | |_| |  |  |/  /          
                |  |  |   |  __  | /  /__\  \  |    /   |      \           
                |  |  |   | |  | | |   __   |  |    \   |  |\   \          
                \     /   | |  | | |  |  |  |  | |\  \  |  | \   \       
                 \___/    |_|  |_| |__|  |__|  |_| \__\ |__|  \__/        
                                                                              
                      - O R C A' S   B I G   F R I E N D -                    
                                      &                                       
                       - I N T E G R A L  F E E D E R -                       
                                                                              
 v1 FN, 2020, v2 2021, v3 2022-2024                                           
------------------------------------------------------------------------------


----------------------
SHARK INTEGRAL PACKAGE
----------------------

Number of atoms                             ...     38
Number of basis functions                   ...   1788
Number of shells                            ...    548
Maximum angular momentum                    ...      4
Integral batch strategy                     ... SHARK/LIBINT Hybrid
RI-J (if used) integral strategy            ... SPLIT-RIJ (Revised 2003 algorithm where possible)
Printlevel                                  ...      1
Contraction scheme used                     ... SEGMENTED contraction
Prescreening option                         ... SCHWARTZ
   Thresh                                   ... 1.000e-10
   Tcut                                     ... 1.000e-11
   Tpresel                                  ... 1.000e-11 
Coulomb Range Separation                    ... NOT USED
Exchange Range Separation                   ... NOT USED
Multipole approximations                    ... NOT USED
Finite Nucleus Model                        ... NOT USED
CABS basis                                  ... NOT available
Auxiliary Coulomb fitting basis             ... NOT available
Auxiliary J/K fitting basis                 ... NOT available
Auxiliary Correlation fitting basis         ... NOT available
Auxiliary 'external' fitting basis          ... NOT available

Checking pre-screening integrals            ... done (  0.0 sec) Dimension = 548
Check shell pair data                       ... done (  0.0 sec)
Shell pair information
Shell pair cut-off parameter TPreSel        ...   1.0e-11
Total number of shell pairs                 ...    150426
Shell pairs after pre-screening             ...     87207
Total number of primitive shell pairs       ...    386901
Primitive shell pairs kept                  ...    155403
          la=0 lb=0:  13203 shell pairs
          la=1 lb=0:  19559 shell pairs
          la=1 lb=1:   6843 shell pairs
          la=2 lb=0:  11963 shell pairs
          la=2 lb=1:   8859 shell pairs
          la=2 lb=2:   2853 shell pairs
          la=3 lb=0:   7171 shell pairs
          la=3 lb=1:   5343 shell pairs
          la=3 lb=2:   3231 shell pairs
          la=3 lb=3:    998 shell pairs
          la=4 lb=0:   2836 shell pairs
          la=4 lb=1:   2097 shell pairs
          la=4 lb=2:   1311 shell pairs
          la=4 lb=3:    770 shell pairs
          la=4 lb=4:    170 shell pairs

Calculating one electron integrals          ... done (  0.2 sec)
Calculating Nuclear repulsion               ... done (  0.0 sec) ENN=   1770.910150569928 Eh

Diagonalization of the overlap matrix:
Smallest eigenvalue                        ... 1.314e-06
Time for diagonalization                   ...    0.293 sec
Threshold for overlap eigenvalues          ... 1.000e-07
Number of eigenvalues below threshold      ... 0
Time for construction of square roots      ...    0.230 sec
Total time needed                          ...    0.544 sec

-------------------
DFT GRID GENERATION
-------------------

General Integration Accuracy     IntAcc      ... 4.959
Radial Grid Type                 RadialGrid  ... OptM3 with GC (2021)
Angular Grid (max. ang.)         AngularGrid ... 6 (Lebedev-590)
Angular grid pruning method      GridPruning ... 4 (adaptive)
Weight generation scheme         WeightScheme... mBecke (2022)
Basis function cutoff            BFCut       ... 1.0000e-10
Integration weight cutoff        WCut        ... 1.0000e-14
Partially contracted basis set               ... off
Rotationally invariant grid construction     ... off
Angular grids for H and He will be reduced by one unit
Diffuse basis detected: some atoms will have their outermost
                        angular grid increased by 1.

Total number of grid points                  ...   468081
Total number of batches                      ...     7331
Average number of points per batch           ...       63
Average number of grid points per atom       ...    12318
Initializing property integral containers    ... done (  0.0 sec)

SHARK setup successfully completed in   6.5 seconds

Maximum memory used throughout the entire STARTUP-calculation: 219.0 MB


           ************************************************************
           *        Program running with 10 parallel MPI-processes    *
           *              working on a common directory               *
           ************************************************************
-------------------------------------------------------------------------------
                                 ORCA GUESS
                   Start orbitals & Density for SCF / CASSCF
-------------------------------------------------------------------------------

------------
SCF SETTINGS
------------
Hamiltonian:
 Density Functional     Method          .... DFT(GTOs)
 Exchange Functional    Exchange        .... PBE
   PBE kappa parameter   XKappa         ....  0.804000
   PBE mue parameter    XMuePBE         ....  0.219520
 Correlation Functional Correlation     .... P86
 LDA part of GGA corr.  LDAOpt          .... VWN-5
 Gradients option       PostSCFGGA      .... off
 Hybrid DFT is turned on
   Fraction HF Exchange ScalHFX         ....  0.690000
   Scaling of DF-GGA-X  ScalDFX         ....  0.310000
   Scaling of DF-GGA-C  ScalDFC         ....  0.403800
   Scaling of DF-LDA-C  ScalLDAC        ....  0.403800
   Perturbative correction              ....  1.000000


General Settings:
 Integral files         IntName         .... compas3x_hc_c24h14_0pent_6_qz_nori
 Hartree-Fock type      HFTyp           .... RHF
 Total Charge           Charge          ....    0
 Multiplicity           Mult            ....    1
 Number of Electrons    NEL             ....  158
 Basis Dimension        Dim             .... 1788
 Nuclear Repulsion      ENuc            ....   1770.9101505699 Eh

Convergence Acceleration:
 AO-DIIS                CNVDIIS         .... on
   Start iteration      DIISMaxIt       ....    12
   Startup error        DIISStart       ....  0.200000
   # of expansion vecs  DIISMaxEq       ....     5
   Bias factor          DIISBfac        ....   1.050
   Max. coefficient     DIISMaxC        ....  10.000
 MO-DIIS                CNVKDIIS        .... off
 Trust-Rad. Augm. Hess. CNVTRAH         .... auto
   Auto Start mean grad. ratio tolernc. ....  1.125000
   Auto Start start iteration           ....    50
   Auto Start num. interpolation iter.  ....    10
   Max. Number of Micro iterations      ....    24
   Max. Number of Macro iterations      .... Maxiter - #DIIS iter
   Number of Davidson start vectors     ....     2
   Converg. threshold    (grad. norm)   ....   5.000e-05
   Grad. Scal. Fac. for Micro threshold ....   0.100
   Minimum threshold for Micro iter.    ....   1.000e-02
   NR start threshold (gradient norm)   ....   1.000e-04
   Initial trust radius                 ....   0.400
   Minimum AH scaling param. (alpha)    ....   1.000
   Maximum AH scaling param. (alpha)    .... 1000.000
   Quad. conv. algorithm                .... NR
   White noise on init. David. guess    .... on
   Maximum white noise                  ....   0.010
   Pseudo random numbers                .... off
   Inactive MOs                         .... canonical
   Orbital update algorithm             .... Taylor
   Preconditioner                       .... Diag
   Full preconditioner red. dimension   ....   250
 SOSCF                  CNVSOSCF        .... on
   Start iteration      SOSCFMaxIt      ....   150
   Startup grad/error   SOSCFStart      ....  0.003300
   Hessian update       SOSCFHessUp     .... L-BFGS
 Level Shifting         CNVShift        .... on
   Level shift para.    LevelShift      ....    0.2500
   Turn off err/grad.   ShiftErr        ....    0.0010
 Zerner damping         CNVZerner       .... off
 Static damping         CNVDamp         .... on
   Fraction old density DampFac         ....    0.7000
   Max. Damping (<1)    DampMax         ....    0.9800
   Min. Damping (>=0)   DampMin         ....    0.0000
   Turn off err/grad.   DampErr         ....    0.1000

SCF Procedure:
 Maximum # iterations   MaxIter         ....   125
 SCF integral mode      SCFMode         .... Direct
   Integral package                     .... SHARK and LIBINT hybrid scheme
 Reset frequency        DirectResetFreq ....    20
 Integral Threshold     Thresh          ....  1.000e-10 Eh
 Primitive CutOff       TCut            ....  1.000e-11 Eh

Convergence Tolerance:
 Convergence Check Mode ConvCheckMode   .... Total+1el-Energy
 Convergence forced     ConvForced      .... 0
 Energy Change          TolE            ....  1.000e-06 Eh
 1-El. energy change                    ....  1.000e-03 Eh
 Orbital Gradient       TolG            ....  5.000e-05
 Orbital Rotation angle TolX            ....  5.000e-05
 DIIS Error             TolErr          ....  1.000e-06

------------------------------
INITIAL GUESS: MODEL POTENTIAL
------------------------------
Loading Hartree-Fock densities                     ... done
Calculating cut-offs                               ... done
Initializing the effective Hamiltonian             ... done
Setting up the integral package (SHARK)            ... done
Starting the Coulomb interaction                   ... done (   0.6 sec)
Making the grid                                    ... done (   0.2 sec)
Mapping shells                                     ... done
Starting the XC term evaluation                    ... done (   0.5 sec)
  promolecular density results
     # of electrons  =    157.985765777
     EX              =   -127.044337043
     EC              =      0.202888196
     EX+EC           =   -126.841448846
Transforming the Hamiltonian                       ... done (   0.2 sec)
Diagonalizing the Hamiltonian                      ... done (   0.3 sec)
Back transforming the eigenvectors                 ... done (   0.1 sec)
Now organizing SCF variables                       ... done
                      ------------------
                      INITIAL GUESS DONE (   2.2 sec)
                      ------------------
             **** ENERGY FILE WAS UPDATED (compas3x_hc_c24h14_0pent_6_qz_nori.en.tmp) ****
Finished Guess after   5.0 sec
Maximum memory used throughout the entire GUESS-calculation: 220.4 MB


           ************************************************************
           *        Program running with 10 parallel MPI-processes    *
           *              working on a common directory               *
           ************************************************************

-------------------------------------------------------------------------------------------
                                      ORCA LEAN-SCF
                              memory conserving SCF solver
-------------------------------------------------------------------------------------------

----------------------------------------D-I-I-S--------------------------------------------
Iteration    Energy (Eh)           Delta-E    RMSDP     MaxDP     DIISErr   Damp  Time(sec)
-------------------------------------------------------------------------------------------
               ***  Starting incremental Fock matrix formation  ***
