
                                 *****************
                                 * O   R   C   A *
                                 *****************

                                            #,                                       
                                            ###                                      
                                            ####                                     
                                            #####                                    
                                            ######                                   
                                           ########,                                 
                                     ,,################,,,,,                         
                               ,,#################################,,                 
                          ,,##########################################,,             
                       ,#########################################, ''#####,          
                    ,#############################################,,   '####,        
                  ,##################################################,,,,####,       
                ,###########''''           ''''###############################       
              ,#####''   ,,,,##########,,,,          '''####'''          '####       
            ,##' ,,,,###########################,,,                        '##       
           ' ,,###''''                  '''############,,,                           
         ,,##''                                '''############,,,,        ,,,,,,###''
      ,#''                                            '''#######################'''  
     '                                                          ''''####''''         
             ,#######,   #######,   ,#######,      ##                                
            ,#'     '#,  ##    ##  ,#'     '#,    #''#        ,####,   ,####,        
            ##       ##  ##   ,#'  ##            #'  '#       #'       #'  '#        
            ##       ##  #######   ##           ,######,      #####,   #    #        
            '#,     ,#'  ##    ##  '#,     ,#' ,#      #,     #,   #   #,  ,#        
             '#######'   ##     ##  '#######'  #'      '#     '####' # '####'        



                #########################################################
                #                        -***-                          #
                #          Department of theory and spectroscopy        #
                #                                                       #
                #                      Frank Neese                      #
                #                                                       #
                #     Directorship, Architecture, Infrastructure        #
                #                    SHARK, DRIVERS                     #
                #        Core code/Algorithms in most modules           #
                #                                                       #
                #        Max Planck Institute fuer Kohlenforschung      #
                #                Kaiser Wilhelm Platz 1                 #
                #                 D-45470 Muelheim/Ruhr                 #
                #                      Germany                          #
                #                                                       #
                #                  All rights reserved                  #
                #                        -***-                          #
                #########################################################


                         Program Version 6.0.1  -  RELEASE   -


 With contributions from (in alphabetic order):
[Max-Planck-Institut fuer Kohlenforschung]                               
  Daniel Aravena         : Magnetic Suceptibility                        
  Michael Atanasov       : Ab Initio Ligand Field Theory (pilot matlab implementation)
  Alexander A. Auer      : GIAO ZORA, VPT2 properties, NMR spectrum      
  Ute Becker             : All parallelization in ORCA, NUMFREQ, NUMCALC 
  Giovanni Bistoni       : ED, misc. LED, open-shell LED, HFLD           
  Martin Brehm           : Molecular dynamics                            
  Dmytro Bykov           : pre 5.0 version of the SCF Hessian            
  Marcos Casanova-Páez   : Triplet and SCS-CIS(D). UHF-(DLPNO)-IP/EA/STEOM-CCSD. UHF-CVS-IP/STEOM-CCSD   
  Vijay G. Chilkuri      : MRCI spin determinant printing, contributions to CSF-ICE 
  Pauline Colinet        : FMM embedding                                 
  Dipayan Datta          : RHF DLPNO-CCSD density                        
  Achintya Kumar Dutta   : EOM-CC, STEOM-CC                              
  Nicolas Foglia         : Exact transition moments, OPA infrastructure, MCD improvements    
  Dmitry Ganyushin       : Spin-Orbit,Spin-Spin,Magnetic field MRCI      
  Miquel Garcia-Rates    : C-PCM and meta-GGA Hessian, CCSD/C-PCM, Gaussian charge scheme 
  Tiago L. C. Gouveia    : GS-ROHF, GS-ROCIS                             
  Yang Guo               : DLPNO-NEVPT2, F12-NEVPT2, CIM, IAO-localization        
  Andreas Hansen         : Spin unrestricted coupled pair/coupled cluster methods 
  Ingolf Harden          : AUTO-CI MPn and infrastructure                
  Benjamin Helmich-Paris : MC-RPA, TRAH-(SCF,CASSCF), AVAS, COSX integrals, SCF dyn. polar. 
  Lee Huntington         : MR-EOM, pCC                                   
  Robert Izsak           : Overlap fitted RIJCOSX, COSX-SCS-MP3, EOM     
  Riya Kayal             : Wick's Theorem for AUTO-CI, AUTO-CI UHF-CCSDT 
  Emily Kempfer          : AUTO-CI, RHF CISDT and CCSDT                  
  Christian Kollmar      : KDIIS, OOCD, Brueckner-CCSD(T), CCSD density, CASPT2, CASPT2-K, improved NEVPT2 
  Axel Koslowski         : Symmetry handling                             
  Simone Kossmann        : meta-GGA functionals, TD-DFT gradient, OOMP2, (MP2 Hessian; deprecated post 5.0) 
  Lucas Lang             : DCDCAS                                        
  Marvin Lechner         : AUTO-CI (C++ implementation), FIC-MRCC        
  Spencer Leger          : CASSCF response                               
  Dagmar Lenk            : GEPOL surface, SMD, ORCA-2-JSON               
  Dimitrios Liakos       : Extrapolation schemes; Compound Job, initial MDCI parallelization 
  Dimitrios Manganas     : Further ROCIS development; embedding schemes. LFT, Crystal Embedding 
  Dimitrios Pantazis     : SARC Basis sets                               
  Anastasios Papadopoulos: AUTO-CI, single reference methods and gradients 
  Taras Petrenko         : pre 6.0 DFT Hessian and TD-DFT gradient, (ASA, deprecated), ECA, 1-Electron XAS/XES, NRVS 
  Peter Pinski           : DLPNO-MP2, DLPNO-MP2 Gradient                 
  Christoph Reimann      : Effective Core Potentials                     
  Marius Retegan         : Local ZFS, SOC                                
  Christoph Riplinger    : Optimizer, TS searches, QM/MM, DLPNO-CCSD(T), (RO)-DLPNO pert. Triples 
  Michael Roemelt        : Original ROCIS implementation                 
  Masaaki Saitow         : Open-shell DLPNO-CCSD energy and density      
  Barbara Sandhoefer     : DKH picture change effects                    
  Kantharuban Sivalingam : CASSCF convergence/infrastructure, NEVPT2 and variants, FIC-MRCI 
  Bernardo de Souza      : ESD, SOC TD-DFT                               
  Georgi L. Stoychev     : AutoAux, RI-MP2 NMR, DLPNO-MP2 response, X2C  
  Van Anh Tran           : RI-MP2 g-tensors                              
  Willem Van den Heuvel  : Paramagnetic NMR                              
  Zikuan Wang            : NOTCH, Electric field optimization            
  Frank Wennmohs         : Technical directorship and infrastructure     
  Hang Xu                : AUTO-CI-Response properties                   
                                                                         
[FACCTs GmbH]                                                            
  Markus Bursch, Miquel Garcia-Rates, Christoph Riplinger, Bernardo de Souza, Georgi L. Stoychev 
                                                                 
  APM, Basis sets (HGBS, AHGBS, def-TZVP (Ac-Lr), def2-XVPD (La-Lu)), CI-OPT, improved COSX, DLPNO-Multilevel,           
  DOCKER, DRACO, updates on ESD, GOAT, IRC, LR-CPCM, MBIS, meta-GGA TD-DFT gradient, ML-optimized integration grids, 
  MM, NACMEs, nearIR, NEB, NEB-TS, NL-DFT gradient (VV10), 2- and 3-layer-ONIOM, interface openCOSMO-RS, QMMM,   
  Crystal-QMMM, SF, symmetry and pop. for TD-DFT, r2SCAN hybrids, SOLVATOR                                   
                                                                         
[Other institutions]                                                     
  V. Asgeirsson          : NEB                                           
  Christoph Bannwarth    : sTDA-DFT, sTD-DFT, PBEh-3c, B97-3c, D3        
  Sebastian Ehlert       : rSCAN, r2SCAN, r2SCAN-3c, D4, dhf basis sets  
  Marvin Friede          : D4 for Fr, Ra, Ac-Lr                          
  Lars Goerigk           : TD-DFT with DH, B97 family of functionals     
  Stefan Grimme          : VdW corrections, initial TS optimization, DFT functionals, gCP, sTDA/sTD-DF 
  Waldemar Hujo          : DFT-NL                                        
  H. Jonsson             : NEB                                           
  Holger Kruse           : gCP                                           
  Marcel Mueller         : wB97X-3c, vDZP basis set                      
  Hagen Neugebauer       : wr2SCAN                                       
  Tobias Risthaus        : range-separated hybrid DFT                    
  Lukas Wittmann         : regularized MP2, r2SCAN double-hybrids, wr2SCAN        
                                                                         
We gratefully acknowledge several colleagues who have allowed us to      
interface, adapt or use parts of their codes:                            
  Ed Valeev, F. Pavosevic, A. Kumar             : LibInt (2-el integral package), F12 methods 
  Garnet Chan, S. Sharma, J. Yang, R. Olivares  : DMRG                   
  Ulf Ekstrom                                   : XCFun DFT Library      
  Mihaly Kallay                                 : mrcc  (arbitrary order and MRCC methods)
  Frank Weinhold                                : gennbo (NPA and NBO analysis)           
  Simon Mueller                                 : openCOSMO-RS                            
  Christopher J. Cramer and Donald G. Truhlar   : smd solvation model                     
  S Lehtola, MJT Oliveira, MAL Marques          : LibXC Library                           
  Liviu Ungur et al                             : ANISO software                          


 Your calculation uses the libint2 library for the computation of 2-el integrals
 For citations please refer to: http://libint.valeyev.net

 Your ORCA version has been built with support for libXC version: 6.2.2
 For citations please refer to: https://libxc.gitlab.io

 This ORCA versions uses:
   CBLAS   interface :  Fast vector & matrix operations
   LAPACKE interface :  Fast linear algebra routines
   SCALAPACK package :  Parallel linear algebra routines
   Shared memory     :  Shared parallel matrices
   BLAS/LAPACK       :  OpenBLAS 0.3.27  USE64BITINT DYNAMIC_ARCH NO_AFFINITY SapphireRapids SINGLE_THREADED
        Core in use  :  SapphireRapids
   Copyright (c) 2011-2014, The OpenBLAS Project


Warning! Weird basis set assignment to AuxJK basis!


***************************************
The coordinates will be read from file: /g/data/kx58/rs2200/dhdft/inputs/compas3D-xyzs/hc_c22h12_0pent_2.xyz
***************************************


Your calculation utilizes the atom-pairwise dispersion correction
based on EEQ partial charges (D4)


================================================================================

----- Orbital basis set information -----
Your calculation utilizes the basis: def2-QZVPP
   F. Weigend and R. Ahlrichs, Phys. Chem. Chem. Phys. 7, 3297 (2005).

----- AuxC basis set information -----
Your calculation utilizes the auxiliary basis: def2-QZVPP/C
  H-La, Hf-Rn : A. Hellweg, C. Hattig, S. Hofener and W. Klopper, Theor. Chem. Acc. 117, 587 (2007).
        Ce-Lu : J. Chmela and M. E. Harding, Mol. Phys. (2018).

----- AuxJK basis set information -----
Your calculation utilizes the auxiliary basis: def2-QZVPP/C
  H-La, Hf-Rn : A. Hellweg, C. Hattig, S. Hofener and W. Klopper, Theor. Chem. Acc. 117, 587 (2007).
        Ce-Lu : J. Chmela and M. E. Harding, Mol. Phys. (2018).

================================================================================
                                        WARNINGS
                       Please study these warnings very carefully!
================================================================================


WARNING: No MP2 level density has been requested!
         To calculate MP2 level properties use
         %mp2 Density relaxed end
         or
         %mp2 Density unrelaxed end
         Otherwise for double-hybrid DFT only the energy is correct!

================================================================================
                                       INPUT FILE
================================================================================
NAME = compas3D_hc_c22h12_0pent_2_qz_riri.inp
|  1> ! RKS revDSD-PBEP86-D4/2021 defgrid3  RIJK NOPOP NoFrozencore NoUseSym
|  2> 
|  3> %basis
|  4> Basis "def2-QZVPP"
|  5> AuxJK "def2-QZVPP/C"
|  6> AuxC "def2-QZVPP/C"
|  7> end
|  8> 
|  9> %method
| 10> ScalHFX 0.69
| 11> ScalDFX 0.31
| 12> ScalDFC 0.4038
| 13> ScalLDAC 0.4038
| 14> 
| 15> D4S6 0.4612
| 16> D4S8 0.0
| 17> D4A1 0.44
| 18> D4A2 3.60
| 19> end
| 20> 
| 21> %mp2
| 22> PS 0.5979
| 23> PT 0.0571
| 24> 
| 25> end
| 26> 
| 27> %pal
| 28> nprocs 104
| 29> end
| 30> 
| 31> *XYZFILE 0 1 /g/data/kx58/rs2200/dhdft/inputs/compas3D-xyzs/hc_c22h12_0pent_2.xyz
| 32> 
| 33>                          ****END OF INPUT****
================================================================================

                       ****************************
                       * Single Point Calculation *
                       ****************************

---------------------------------
CARTESIAN COORDINATES (ANGSTROEM)
---------------------------------
  C      1.389572   -1.258440   -0.002824
  C      0.084164   -0.699428   -0.001159
  C     -0.084341    0.699427    0.001216
  C      1.069842    1.558813    0.001934
  C      2.330298    1.003193    0.000282
  C      2.527420   -0.401862   -0.002104
  C      1.565564   -2.674654   -0.005207
  C      0.388097   -3.515745   -0.005901
  C     -0.855326   -2.989745   -0.004336
  C     -1.070019   -1.558813   -0.001878
  C     -2.330474   -1.003193   -0.000235
  C     -2.527597    0.401862    0.002150
  C     -1.389749    1.258440    0.002881
  C     -1.565740    2.674654    0.005275
  C     -0.388274    3.515745    0.005978
  C      0.855149    2.989745    0.004405
  C      3.816092   -0.982497   -0.003769
  C      3.971253   -2.353062   -0.006038
  C      2.852209   -3.198429   -0.006765
  C     -3.816268    0.982497    0.003810
  C     -3.971429    2.353062    0.006090
  C     -2.852386    3.198429    0.006834
  H      3.206196    1.656688    0.000820
  H      0.531246   -4.598679   -0.007737
  H     -1.733060   -3.639944   -0.004898
  H     -3.206372   -1.656688   -0.000778
  H     -0.531423    4.598679    0.007827
  H      1.732884    3.639944    0.004972
  H      4.690173   -0.327550   -0.003216
  H      4.973280   -2.786834   -0.007283
  H      2.987043   -4.282399   -0.008563
  H     -4.690349    0.327550    0.003242
  H     -4.973456    2.786834    0.007333
  H     -2.987220    4.282399    0.008643

----------------------------
CARTESIAN COORDINATES (A.U.)
----------------------------
  NO LB      ZA    FRAG     MASS         X           Y           Z
   0 C     6.0000    0    12.011    2.625911   -2.378106   -0.005336
   1 C     6.0000    0    12.011    0.159047   -1.321727   -0.002190
   2 C     6.0000    0    12.011   -0.159381    1.321726    0.002297
   3 C     6.0000    0    12.011    2.021709    2.945730    0.003655
   4 C     6.0000    0    12.011    4.403624    1.895760    0.000533
   5 C     6.0000    0    12.011    4.776132   -0.759409   -0.003975
   6 C     6.0000    0    12.011    2.958487   -5.054364   -0.009840
   7 C     6.0000    0    12.011    0.733398   -6.643794   -0.011151
   8 C     6.0000    0    12.011   -1.616331   -5.649799   -0.008193
   9 C     6.0000    0    12.011   -2.022043   -2.945730   -0.003548
  10 C     6.0000    0    12.011   -4.403958   -1.895760   -0.000444
  11 C     6.0000    0    12.011   -4.776466    0.759409    0.004063
  12 C     6.0000    0    12.011   -2.626245    2.378106    0.005444
  13 C     6.0000    0    12.011   -2.958820    5.054364    0.009969
  14 C     6.0000    0    12.011   -0.733731    6.643795    0.011297
  15 C     6.0000    0    12.011    1.615998    5.649799    0.008323
  16 C     6.0000    0    12.011    7.211369   -1.856649   -0.007123
  17 C     6.0000    0    12.011    7.504580   -4.446643   -0.011410
  18 C     6.0000    0    12.011    5.389894   -6.044155   -0.012785
  19 C     6.0000    0    12.011   -7.211702    1.856649    0.007200
  20 C     6.0000    0    12.011   -7.504913    4.446643    0.011509
  21 C     6.0000    0    12.011   -5.390228    6.044155    0.012914
  22 H     1.0000    0     1.008    6.058832    3.130686    0.001549
  23 H     1.0000    0     1.008    1.003910   -8.690243   -0.014621
  24 H     1.0000    0     1.008   -3.275009   -6.878497   -0.009256
  25 H     1.0000    0     1.008   -6.059166   -3.130686   -0.001471
  26 H     1.0000    0     1.008   -1.004243    8.690243    0.014790
  27 H     1.0000    0     1.008    3.274676    6.878497    0.009395
  28 H     1.0000    0     1.008    8.863142   -0.618979   -0.006078
  29 H     1.0000    0     1.008    9.398137   -5.266353   -0.013764
  30 H     1.0000    0     1.008    5.644693   -8.092562   -0.016181
  31 H     1.0000    0     1.008   -8.863475    0.618980    0.006127
  32 H     1.0000    0     1.008   -9.398470    5.266353    0.013857
  33 H     1.0000    0     1.008   -5.645027    8.092562    0.016332

--------------------------------
INTERNAL COORDINATES (ANGSTROEM)
--------------------------------
 C      0   0   0     0.000000000000     0.00000000     0.00000000
 C      1   0   0     1.420066178862     0.00000000     0.00000000
 C      2   1   0     1.408969361329   120.05072758     0.00000000
 C      3   2   1     1.438986831339   119.80206500     0.00000000
 C      4   3   2     1.377484807698   119.54083843     0.00000000
 C      5   4   3     1.418817426111   121.77459551     0.00000000
 C      1   2   3     1.427109624429   120.26578624   179.99891354
 C      7   1   2     1.447018012498   118.45529881     0.00000000
 C      8   7   1     1.350103394640   121.53126805     0.00000000
 C      2   1   3     1.438986689793   120.14722105   180.00056667
 C     10   2   1     1.377484726371   119.54085948   179.99955001
 C     11  10   2     1.418817476291   121.77457907     0.00000000
 C      3   2   1     1.420066274177   120.05073835   180.00000694
 C     13   3   2     1.427109736401   120.26578838   180.00057054
 C     14  13   3     1.447018039310   118.45530351     0.00000000
 C     15  14  13     1.350103410698   121.53126922     0.00000000
 C      6   5   4     1.413440311575   122.24108285   180.00209633
 C     17   6   5     1.379322412361   120.71377886   179.99817924
 C      7   1   2     1.389172120886   119.23436796   180.00183498
 C     12  11  10     1.413440099688   122.24107645   179.99808701
 C     20  12  11     1.379322415729   120.71378450   180.00123028
 C     14  13   3     1.389172195366   119.23435028   179.99817689
 H      5   4   3     1.092818918883   119.48553712   179.99939348
 H      8   7   1     1.092355724002   118.00901776   179.99945977
 H      9   8   7     1.092326310560   120.54040356   179.99955130
 H     11  10   2     1.092818841413   119.48553275   180.00026259
 H     15  14  13     1.092355755452   118.00900633   180.00075970
 H     16  15  14     1.092326361721   120.54041204   180.00031562
 H     17   6   5     1.092232916846   118.90097476     0.00000000
 H     18  17   6     1.091887400913   119.86646255   180.00129515
 H     19   7   1     1.092325183657   119.24111512   179.99835330
 H     20  12  11     1.092232897898   118.90098627     0.00000000
 H     21  20  12     1.091887445365   119.86645767   179.99881241
 H     22  14  13     1.092325204702   119.24112233   180.00145025

---------------------------
INTERNAL COORDINATES (A.U.)
---------------------------
 C      0   0   0     0.000000000000     0.00000000     0.00000000
 C      1   0   0     2.683536170092     0.00000000     0.00000000
 C      2   1   0     2.662566223998   120.05072758     0.00000000
 C      3   2   1     2.719291021551   119.80206500     0.00000000
 C      4   3   2     2.603069040187   119.54083843     0.00000000
 C      5   4   3     2.681176369384   121.77459551     0.00000000
 C      1   2   3     2.696846353254   120.26578624   179.99891354
 C      7   1   2     2.734467754472   118.45529881     0.00000000
 C      8   7   1     2.551325668347   121.53126805     0.00000000
 C      2   1   3     2.719290754066   120.14722105   180.00056667
 C     10   2   1     2.603068886500   119.54085948   179.99955001
 C     11  10   2     2.681176464212   121.77457907     0.00000000
 C      3   2   1     2.683536350212   120.05073835   180.00000694
 C     13   3   2     2.696846564851   120.26578838   180.00057054
 C     14  13   3     2.734467805140   118.45530351     0.00000000
 C     15  14  13     2.551325698692   121.53126922     0.00000000
 C      6   5   4     2.671015095522   122.24108285   180.00209633
 C     17   6   5     2.606541609743   120.71377886   179.99817924
 C      7   1   2     2.625154861353   119.23436796   180.00183498
 C     12  11  10     2.671014695112   122.24107645   179.99808701
 C     20  12  11     2.606541616107   120.71378450   180.00123028
 C     14  13   3     2.625155002100   119.23435028   179.99817689
 H      5   4   3     2.065128470657   119.48553712   179.99939348
 H      8   7   1     2.064253159185   118.00901776   179.99945977
 H      9   8   7     2.064197575834   120.54040356   179.99955130
 H     11  10   2     2.065128324260   119.48553275   180.00026259
 H     15  14  13     2.064253218617   118.00900633   180.00075970
 H     16  15  14     2.064197672515   120.54041204   180.00031562
 H     17   6   5     2.064021087293   118.90097476     0.00000000
 H     18  17   6     2.063368156805   119.86646255   180.00129515
 H     19   7   1     2.064195446297   119.24111512   179.99835330
 H     20  12  11     2.064021051486   118.90098627     0.00000000
 H     21  20  12     2.063368240808   119.86645767   179.99881241
 H     22  14  13     2.064195486066   119.24112233   180.00145025

---------------------
BASIS SET INFORMATION
---------------------
There are 2 groups of distinct atoms

 Group   1 Type C   : 15s8p3d2f1g contracted to 7s4p3d2f1g pattern {8211111/5111/111/11/1}
 Group   2 Type H   : 7s3p2d1f contracted to 4s3p2d1f pattern {4111/111/11/1}

Atom   0C    basis set group =>   1
Atom   1C    basis set group =>   1
Atom   2C    basis set group =>   1
Atom   3C    basis set group =>   1
Atom   4C    basis set group =>   1
Atom   5C    basis set group =>   1
Atom   6C    basis set group =>   1
Atom   7C    basis set group =>   1
Atom   8C    basis set group =>   1
Atom   9C    basis set group =>   1
Atom  10C    basis set group =>   1
Atom  11C    basis set group =>   1
Atom  12C    basis set group =>   1
Atom  13C    basis set group =>   1
Atom  14C    basis set group =>   1
Atom  15C    basis set group =>   1
Atom  16C    basis set group =>   1
Atom  17C    basis set group =>   1
Atom  18C    basis set group =>   1
Atom  19C    basis set group =>   1
Atom  20C    basis set group =>   1
Atom  21C    basis set group =>   1
Atom  22H    basis set group =>   2
Atom  23H    basis set group =>   2
Atom  24H    basis set group =>   2
Atom  25H    basis set group =>   2
Atom  26H    basis set group =>   2
Atom  27H    basis set group =>   2
Atom  28H    basis set group =>   2
Atom  29H    basis set group =>   2
Atom  30H    basis set group =>   2
Atom  31H    basis set group =>   2
Atom  32H    basis set group =>   2
Atom  33H    basis set group =>   2
---------------------------------
AUXILIARY/C BASIS SET INFORMATION
---------------------------------
There are 2 groups of distinct atoms

 Group   1 Type C   : 9s8p7d5f3g1h contracted to 9s8p7d5f3g1h pattern {111111111/11111111/1111111/11111/111/1}
 Group   2 Type H   : 6s4p3d2f1g contracted to 6s4p3d2f1g pattern {111111/1111/111/11/1}

Atom   0C    basis set group =>   1
Atom   1C    basis set group =>   1
Atom   2C    basis set group =>   1
Atom   3C    basis set group =>   1
Atom   4C    basis set group =>   1
Atom   5C    basis set group =>   1
Atom   6C    basis set group =>   1
Atom   7C    basis set group =>   1
Atom   8C    basis set group =>   1
Atom   9C    basis set group =>   1
Atom  10C    basis set group =>   1
Atom  11C    basis set group =>   1
Atom  12C    basis set group =>   1
Atom  13C    basis set group =>   1
Atom  14C    basis set group =>   1
Atom  15C    basis set group =>   1
Atom  16C    basis set group =>   1
Atom  17C    basis set group =>   1
Atom  18C    basis set group =>   1
Atom  19C    basis set group =>   1
Atom  20C    basis set group =>   1
Atom  21C    basis set group =>   1
Atom  22H    basis set group =>   2
Atom  23H    basis set group =>   2
Atom  24H    basis set group =>   2
Atom  25H    basis set group =>   2
Atom  26H    basis set group =>   2
Atom  27H    basis set group =>   2
Atom  28H    basis set group =>   2
Atom  29H    basis set group =>   2
Atom  30H    basis set group =>   2
Atom  31H    basis set group =>   2
Atom  32H    basis set group =>   2
Atom  33H    basis set group =>   2
----------------------------------
AUXILIARY/JK BASIS SET INFORMATION
----------------------------------
There are 2 groups of distinct atoms

 Group   1 Type C   : 9s8p7d5f3g1h contracted to 9s8p7d5f3g1h pattern {111111111/11111111/1111111/11111/111/1}
 Group   2 Type H   : 6s4p3d2f1g contracted to 6s4p3d2f1g pattern {111111/1111/111/11/1}

Atom   0C    basis set group =>   1
Atom   1C    basis set group =>   1
Atom   2C    basis set group =>   1
Atom   3C    basis set group =>   1
Atom   4C    basis set group =>   1
Atom   5C    basis set group =>   1
Atom   6C    basis set group =>   1
Atom   7C    basis set group =>   1
Atom   8C    basis set group =>   1
Atom   9C    basis set group =>   1
Atom  10C    basis set group =>   1
Atom  11C    basis set group =>   1
Atom  12C    basis set group =>   1
Atom  13C    basis set group =>   1
Atom  14C    basis set group =>   1
Atom  15C    basis set group =>   1
Atom  16C    basis set group =>   1
Atom  17C    basis set group =>   1
Atom  18C    basis set group =>   1
Atom  19C    basis set group =>   1
Atom  20C    basis set group =>   1
Atom  21C    basis set group =>   1
Atom  22H    basis set group =>   2
Atom  23H    basis set group =>   2
Atom  24H    basis set group =>   2
Atom  25H    basis set group =>   2
Atom  26H    basis set group =>   2
Atom  27H    basis set group =>   2
Atom  28H    basis set group =>   2
Atom  29H    basis set group =>   2
Atom  30H    basis set group =>   2
Atom  31H    basis set group =>   2
Atom  32H    basis set group =>   2
Atom  33H    basis set group =>   2


           ************************************************************
           *        Program running with 104 parallel MPI-processes   *
           *              working on a common directory               *
           ************************************************************
------------------------------------------------------------------------------
                             ORCA STARTUP CALCULATIONS
                           -- RI-GTO INTEGRALS CHOSEN --
------------------------------------------------------------------------------
------------------------------------------------------------------------------
                   ___                                                        
                  /   \      - P O W E R E D   B Y -                         
                 /     \                                                     
                 |  |  |   _    _      __       _____    __    __             
                 |  |  |  | |  | |    /  \     |  _  \  |  |  /  |          
                  \  \/   | |  | |   /    \    | | | |  |  | /  /          
                 / \  \   | |__| |  /  /\  \   | |_| |  |  |/  /          
                |  |  |   |  __  | /  /__\  \  |    /   |      \           
                |  |  |   | |  | | |   __   |  |    \   |  |\   \          
                \     /   | |  | | |  |  |  |  | |\  \  |  | \   \       
                 \___/    |_|  |_| |__|  |__|  |_| \__\ |__|  \__/        
                                                                              
                      - O R C A' S   B I G   F R I E N D -                    
                                      &                                       
                       - I N T E G R A L  F E E D E R -                       
                                                                              
 v1 FN, 2020, v2 2021, v3 2022-2024                                           
------------------------------------------------------------------------------


----------------------
SHARK INTEGRAL PACKAGE
----------------------

Number of atoms                             ...     34
Number of basis functions                   ...   1614
Number of shells                            ...    494
Maximum angular momentum                    ...      4
Integral batch strategy                     ... SHARK/LIBINT Hybrid
RI-J (if used) integral strategy            ... SPLIT-RIJ (Revised 2003 algorithm where possible)
Printlevel                                  ...      1
Contraction scheme used                     ... SEGMENTED contraction
Prescreening option                         ... SCHWARTZ
   Thresh                                   ... 1.000e-10
   Tcut                                     ... 1.000e-11
   Tpresel                                  ... 1.000e-11 
Coulomb Range Separation                    ... NOT USED
Exchange Range Separation                   ... NOT USED
Multipole approximations                    ... NOT USED
Finite Nucleus Model                        ... NOT USED
CABS basis                                  ... NOT available
Auxiliary Coulomb fitting basis             ... NOT available
Auxiliary J/K fitting basis                 ... AVAILABLE
   # of basis functions in Aux-JK           ...   3774
   # of shells in Aux-JK                    ...    918
   Maximum angular momentum in Aux-JK       ...      5
Auxiliary Correlation fitting basis         ... AVAILABLE
   # of basis functions in Aux-C            ...   3774
   # of shells in Aux-C                     ...    918
   Maximum angular momentum in Aux-C        ...      5
Auxiliary 'external' fitting basis          ... NOT available

Checking pre-screening integrals            ... done (  0.0 sec) Dimension = 494
Check shell pair data                       ... done (  0.0 sec)
Shell pair information
Shell pair cut-off parameter TPreSel        ...   1.0e-11
Total number of shell pairs                 ...    122265
Shell pairs after pre-screening             ...     78123
Total number of primitive shell pairs       ...    316545
Primitive shell pairs kept                  ...    140540
          la=0 lb=0:  11804 shell pairs
          la=1 lb=0:  17336 shell pairs
          la=1 lb=1:   5968 shell pairs
          la=2 lb=0:  10758 shell pairs
          la=2 lb=1:   7856 shell pairs
          la=2 lb=2:   2616 shell pairs
          la=3 lb=0:   6500 shell pairs
          la=3 lb=1:   4756 shell pairs
          la=3 lb=2:   2958 shell pairs
          la=3 lb=3:    934 shell pairs
          la=4 lb=0:   2604 shell pairs
          la=4 lb=1:   1922 shell pairs
          la=4 lb=2:   1216 shell pairs
          la=4 lb=3:    732 shell pairs
          la=4 lb=4:    163 shell pairs

Calculating one electron integrals          ... done (  0.7 sec)
Calculating RI/JK V-Matrix + Cholesky decomp... done (  0.7 sec)
Calculating RI/C V-Matrix + Cholesky decomp.... done (  0.5 sec)
Calculating Nuclear repulsion               ... done (  0.0 sec) ENN=   1582.153756155454 Eh

Diagonalization of the overlap matrix:
Smallest eigenvalue                        ... 1.699e-06
Time for diagonalization                   ...    0.460 sec
Threshold for overlap eigenvalues          ... 1.000e-07
Number of eigenvalues below threshold      ... 0
Time for construction of square roots      ...    0.296 sec
Total time needed                          ...    0.789 sec

-------------------
DFT GRID GENERATION
-------------------

General Integration Accuracy     IntAcc      ... 4.959
Radial Grid Type                 RadialGrid  ... OptM3 with GC (2021)
Angular Grid (max. ang.)         AngularGrid ... 6 (Lebedev-590)
Angular grid pruning method      GridPruning ... 4 (adaptive)
Weight generation scheme         WeightScheme... mBecke (2022)
Basis function cutoff            BFCut       ... 1.0000e-10
Integration weight cutoff        WCut        ... 1.0000e-14
Partially contracted basis set               ... off
Rotationally invariant grid construction     ... off
Angular grids for H and He will be reduced by one unit
Diffuse basis detected: some atoms will have their outermost
                        angular grid increased by 1.

Total number of grid points                  ...   422208
Total number of batches                      ...     6620
Average number of points per batch           ...       63
Average number of grid points per atom       ...    12418
Initializing property integral containers    ... done (  0.0 sec)

SHARK setup successfully completed in   8.0 seconds

Maximum memory used throughout the entire STARTUP-calculation: 172.1 MB


           ************************************************************
           *        Program running with 104 parallel MPI-processes   *
           *              working on a common directory               *
           ************************************************************
-------------------------------------------------------------------------------
                                 ORCA GUESS
                   Start orbitals & Density for SCF / CASSCF
-------------------------------------------------------------------------------

------------
SCF SETTINGS
------------
Hamiltonian:
 Density Functional     Method          .... DFT(GTOs)
 Exchange Functional    Exchange        .... PBE
   PBE kappa parameter   XKappa         ....  0.804000
   PBE mue parameter    XMuePBE         ....  0.219520
 Correlation Functional Correlation     .... P86
 LDA part of GGA corr.  LDAOpt          .... VWN-5
 Gradients option       PostSCFGGA      .... off
 Hybrid DFT is turned on
   Fraction HF Exchange ScalHFX         ....  0.690000
   Scaling of DF-GGA-X  ScalDFX         ....  0.310000
   Scaling of DF-GGA-C  ScalDFC         ....  0.403800
   Scaling of DF-LDA-C  ScalLDAC        ....  0.403800
   Perturbative correction              ....  1.000000
 RI-approximation to the Coulomb term is turned on
   Number of AuxJK basis functions      .... 3774
   RI-JK (J+K treated both via RI)      .... on


General Settings:
 Integral files         IntName         .... compas3D_hc_c22h12_0pent_2_qz_riri
 Hartree-Fock type      HFTyp           .... RHF
 Total Charge           Charge          ....    0
 Multiplicity           Mult            ....    1
 Number of Electrons    NEL             ....  144
 Basis Dimension        Dim             .... 1614
 Nuclear Repulsion      ENuc            ....   1582.1537561555 Eh

Convergence Acceleration:
 AO-DIIS                CNVDIIS         .... on
   Start iteration      DIISMaxIt       ....    12
   Startup error        DIISStart       ....  0.200000
   # of expansion vecs  DIISMaxEq       ....     5
   Bias factor          DIISBfac        ....   1.050
   Max. coefficient     DIISMaxC        ....  10.000
 MO-DIIS                CNVKDIIS        .... off
 Trust-Rad. Augm. Hess. CNVTRAH         .... auto
   Auto Start mean grad. ratio tolernc. ....  1.125000
   Auto Start start iteration           ....    50
   Auto Start num. interpolation iter.  ....    10
   Max. Number of Micro iterations      ....    24
   Max. Number of Macro iterations      .... Maxiter - #DIIS iter
   Number of Davidson start vectors     ....     2
   Converg. threshold    (grad. norm)   ....   5.000e-05
   Grad. Scal. Fac. for Micro threshold ....   0.100
   Minimum threshold for Micro iter.    ....   1.000e-02
   NR start threshold (gradient norm)   ....   1.000e-04
   Initial trust radius                 ....   0.400
   Minimum AH scaling param. (alpha)    ....   1.000
   Maximum AH scaling param. (alpha)    .... 1000.000
   Quad. conv. algorithm                .... NR
   White noise on init. David. guess    .... on
   Maximum white noise                  ....   0.010
   Pseudo random numbers                .... off
   Inactive MOs                         .... canonical
   Orbital update algorithm             .... Taylor
   Preconditioner                       .... Diag
   Full preconditioner red. dimension   ....   250
 SOSCF                  CNVSOSCF        .... on
   Start iteration      SOSCFMaxIt      ....   150
   Startup grad/error   SOSCFStart      ....  0.003300
   Hessian update       SOSCFHessUp     .... L-BFGS
 Level Shifting         CNVShift        .... on
   Level shift para.    LevelShift      ....    0.2500
   Turn off err/grad.   ShiftErr        ....    0.0010
 Zerner damping         CNVZerner       .... off
 Static damping         CNVDamp         .... on
   Fraction old density DampFac         ....    0.7000
   Max. Damping (<1)    DampMax         ....    0.9800
   Min. Damping (>=0)   DampMin         ....    0.0000
   Turn off err/grad.   DampErr         ....    0.1000

SCF Procedure:
 Maximum # iterations   MaxIter         ....   125
 SCF integral mode      SCFMode         .... Direct
   Integral package                     .... SHARK and LIBINT hybrid scheme
 Reset frequency        DirectResetFreq ....    20
 Integral Threshold     Thresh          ....  1.000e-10 Eh
 Primitive CutOff       TCut            ....  1.000e-11 Eh

Convergence Tolerance:
 Convergence Check Mode ConvCheckMode   .... Total+1el-Energy
 Convergence forced     ConvForced      .... 0
 Energy Change          TolE            ....  1.000e-06 Eh
 1-El. energy change                    ....  1.000e-03 Eh
 Orbital Gradient       TolG            ....  5.000e-05
 Orbital Rotation angle TolX            ....  5.000e-05
 DIIS Error             TolErr          ....  1.000e-06

------------------------------
INITIAL GUESS: MODEL POTENTIAL
------------------------------
Loading Hartree-Fock densities                     ... done
Calculating cut-offs                               ... done
Initializing the effective Hamiltonian             ... done
Setting up the integral package (SHARK)            ... done
Starting the Coulomb interaction                   ... done (   0.3 sec)
Making the grid                                    ... done (   0.3 sec)
Mapping shells                                     ... done
Starting the XC term evaluation                    ... done (   0.1 sec)
  promolecular density results
     # of electrons  =    143.985414302
     EX              =   -116.141594446
     EC              =      0.191318968
     EX+EC           =   -115.950275477
Transforming the Hamiltonian                       ... done (   0.2 sec)
Diagonalizing the Hamiltonian                      ... done (   0.4 sec)
Back transforming the eigenvectors                 ... done (   0.1 sec)
Now organizing SCF variables                       ... done
                      ------------------
                      INITIAL GUESS DONE (   1.7 sec)
                      ------------------
             **** ENERGY FILE WAS UPDATED (compas3D_hc_c22h12_0pent_2_qz_riri.en.tmp) ****
Finished Guess after  18.0 sec
Maximum memory used throughout the entire GUESS-calculation: 169.5 MB


           ************************************************************
           *        Program running with 104 parallel MPI-processes   *
           *              working on a common directory               *
           ************************************************************

-------------------------------------------------------------------------------------------
                                      ORCA LEAN-SCF
                              memory conserving SCF solver
-------------------------------------------------------------------------------------------

----------------------------------------D-I-I-S--------------------------------------------
Iteration    Energy (Eh)           Delta-E    RMSDP     MaxDP     DIISErr   Damp  Time(sec)
-------------------------------------------------------------------------------------------
    1    -842.0060502079736580     0.00e+00  2.57e-04  2.04e-02  1.46e-01  0.700  11.8
    2    -841.8515742332328955     1.54e-01  2.28e-04  1.93e-02  1.31e-01  0.700  11.7
                               ***Turning on AO-DIIS***
    3    -841.9453976744812280    -9.38e-02  1.77e-04  1.65e-02  7.77e-02  0.700  10.7
    4    -842.1323712446737773    -1.87e-01  3.68e-04  3.44e-02  4.09e-02  0.000  11.9
    5    -842.4339896060237152    -3.02e-01  9.50e-05  8.81e-03  3.35e-02  0.000  11.1
    6    -842.4475556264046645    -1.36e-02  5.66e-05  5.38e-03  1.57e-02  0.000  10.5
    7    -842.4508047115950831    -3.25e-03  2.17e-05  1.89e-03  4.59e-03  0.000  11.8
                              *** Initializing SOSCF ***
---------------------------------------S-O-S-C-F--------------------------------------
Iteration    Energy (Eh)           Delta-E    RMSDP     MaxDP     MaxGrad    Time(sec)
--------------------------------------------------------------------------------------
    8    -842.4511508790960761    -3.46e-04  7.41e-06  4.97e-04  9.63e-04    13.0
    9    -842.4511773395056480    -2.65e-05  5.42e-06  3.62e-04  3.55e-04    10.2
   10    -842.4511825166459857    -5.18e-06  3.90e-06  2.47e-04  1.36e-04     9.7
   11    -842.4511834723934953    -9.56e-07  1.57e-06  1.13e-04  7.42e-05    11.0
                 **** Energy Check signals convergence ****

               *****************************************************
               *                     SUCCESS                       *
               *           SCF CONVERGED AFTER  11 CYCLES          *
               *****************************************************

             **** ENERGY FILE WAS UPDATED (compas3D_hc_c22h12_0pent_2_qz_riri.en.tmp) ****

----------------
TOTAL SCF ENERGY
----------------

Total Energy       :       -842.45118347239350 Eh          -22924.26215 eV

Components:
Nuclear Repulsion  :       1582.15375615545372 Eh           43052.59246 eV
Electronic Energy  :      -2424.60493962784722 Eh          -65976.85461 eV
One Electron Energy:      -4282.62815765491996 Eh         -116536.23676 eV
Two Electron Energy:       1858.02321802707274 Eh           50559.38215 eV

Virial components:
Potential Energy   :      -1682.37578779991759 Eh          -45779.77258 eV
Kinetic Energy     :        839.92460432752409 Eh           22855.51044 eV
Virial Ratio       :          2.00300810231282

DFT components:
N(Alpha)           :       72.000001872691 electrons
N(Beta)            :       72.000001872691 electrons
N(Total)           :      144.000003745382 electrons
E(X)               :      -36.592822932869 Eh       
E(C)               :       -2.145916195451 Eh       
E(XC)              :      -38.738739128321 Eh       

---------------
SCF CONVERGENCE
---------------

  Last Energy change         ...    9.5575e-07  Tolerance :   1.0000e-06
  Last MAX-Density change    ...    1.1305e-04  Tolerance :   1.0000e-05
  Last RMS-Density change    ...    1.5733e-06  Tolerance :   1.0000e-06
  Last DIIS Error            ...    9.6338e-04  Tolerance :   1.0000e-06
  Last Orbital Gradient      ...    7.4210e-05  Tolerance :   5.0000e-05
  Last Orbital Rotation      ...    2.0001e-04  Tolerance :   5.0000e-05


----------------
ORBITAL ENERGIES
----------------

  NO   OCC          E(Eh)            E(eV) 
   0   2.0000     -10.837324      -294.8986 
   1   2.0000     -10.837277      -294.8973 
   2   2.0000     -10.836303      -294.8708 
   3   2.0000     -10.836296      -294.8706 
   4   2.0000     -10.836022      -294.8631 
   5   2.0000     -10.835667      -294.8535 
   6   2.0000     -10.835636      -294.8526 
   7   2.0000     -10.835182      -294.8403 
   8   2.0000     -10.833800      -294.8027 
   9   2.0000     -10.833748      -294.8013 
  10   2.0000     -10.829263      -294.6792 
  11   2.0000     -10.829263      -294.6792 
  12   2.0000     -10.827983      -294.6444 
  13   2.0000     -10.827983      -294.6444 
  14   2.0000     -10.827948      -294.6434 
  15   2.0000     -10.827947      -294.6434 
  16   2.0000     -10.827414      -294.6289 
  17   2.0000     -10.827414      -294.6289 
  18   2.0000     -10.826332      -294.5995 
  19   2.0000     -10.826331      -294.5995 
  20   2.0000     -10.825797      -294.5849 
  21   2.0000     -10.825797      -294.5849 
  22   2.0000      -1.097242       -29.8575 
  23   2.0000      -1.064036       -28.9539 
  24   2.0000      -1.032466       -28.0948 
  25   2.0000      -1.018294       -27.7092 
  26   2.0000      -0.988431       -26.8966 
  27   2.0000      -0.959092       -26.0982 
  28   2.0000      -0.940272       -25.5861 
  29   2.0000      -0.928216       -25.2580 
  30   2.0000      -0.898868       -24.4595 
  31   2.0000      -0.896349       -24.3909 
  32   2.0000      -0.863514       -23.4974 
  33   2.0000      -0.792957       -21.5775 
  34   2.0000      -0.776957       -21.1421 
  35   2.0000      -0.776232       -21.1224 
  36   2.0000      -0.762422       -20.7466 
  37   2.0000      -0.744970       -20.2717 
  38   2.0000      -0.702392       -19.1131 
  39   2.0000      -0.676926       -18.4201 
  40   2.0000      -0.645107       -17.5543 
  41   2.0000      -0.642529       -17.4841 
  42   2.0000      -0.633371       -17.2349 
  43   2.0000      -0.623845       -16.9757 
  44   2.0000      -0.596198       -16.2234 
  45   2.0000      -0.580394       -15.7933 
  46   2.0000      -0.572519       -15.5790 
  47   2.0000      -0.560324       -15.2472 
  48   2.0000      -0.543567       -14.7912 
  49   2.0000      -0.536914       -14.6102 
  50   2.0000      -0.524970       -14.2852 
  51   2.0000      -0.522150       -14.2084 
  52   2.0000      -0.520927       -14.1751 
  53   2.0000      -0.506997       -13.7961 
  54   2.0000      -0.499802       -13.6003 
  55   2.0000      -0.491986       -13.3876 
  56   2.0000      -0.481088       -13.0911 
  57   2.0000      -0.478067       -13.0089 
  58   2.0000      -0.477798       -13.0015 
  59   2.0000      -0.456952       -12.4343 
  60   2.0000      -0.446688       -12.1550 
  61   2.0000      -0.437023       -11.8920 
  62   2.0000      -0.423930       -11.5357 
  63   2.0000      -0.418682       -11.3929 
  64   2.0000      -0.404146       -10.9974 
  65   2.0000      -0.391649       -10.6573 
  66   2.0000      -0.348401        -9.4805 
  67   2.0000      -0.343869        -9.3572 
  68   2.0000      -0.318671        -8.6715 
  69   2.0000      -0.288874        -7.8607 
  70   2.0000      -0.275158        -7.4874 
  71   2.0000      -0.222305        -6.0492 
  72   0.0000      -0.018253        -0.4967 
  73   0.0000       0.029860         0.8125 
  74   0.0000       0.041467         1.1284 
  75   0.0000       0.068705         1.8695 
  76   0.0000       0.073505         2.0002 
  77   0.0000       0.074836         2.0364 
  78   0.0000       0.079999         2.1769 
  79   0.0000       0.081919         2.2291 
  80   0.0000       0.093584         2.5466 
  81   0.0000       0.096716         2.6318 
  82   0.0000       0.111116         3.0236 
*Only the first 10 virtual orbitals were printed.
-------
TIMINGS
-------

Total SCF time: 0 days 0 hours 2 min 20 sec 

Total time                  ....     140.948 sec
Sum of individual times     ....     141.040 sec  (100.1%)

SCF preparation             ....      15.895 sec  ( 11.3%)
Fock matrix formation       ....     106.115 sec  ( 75.3%)
  Startup                   ....       1.207 sec  (  1.1% of F)
  RI-JK                     ....      93.846 sec  ( 88.4% of F)
  XC integration            ....       8.716 sec  (  8.2% of F)
    XC Preparation          ....       0.000 sec  (  0.0% of XC)
    Basis function eval.    ....       0.728 sec  (  8.3% of XC)
    Density eval.           ....       1.336 sec  ( 15.3% of XC)
    XC-Functional eval.     ....       0.025 sec  (  0.3% of XC)
    XC-Potential eval.      ....       2.137 sec  ( 24.5% of XC)
Diagonalization             ....       0.000 sec  (  0.0%)
Density matrix formation    ....       2.242 sec  (  1.6%)
Total Energy calculation    ....       0.849 sec  (  0.6%)
Population analysis         ....       0.000 sec  (  0.0%)
Orbital Transformation      ....       2.303 sec  (  1.6%)
Orbital Orthonormalization  ....       0.000 sec  (  0.0%)
DIIS solution               ....      10.884 sec  (  7.7%)
SOSCF solution              ....       2.693 sec  (  1.9%)
Finished LeanSCF after 141.2 sec

Maximum memory used throughout the entire LEANSCF-calculation: 484.9 MB


           ************************************************************
           *        Program running with 104 parallel MPI-processes   *
           *              working on a common directory               *
           ************************************************************

------------------------------------------------------------------------------
                                ORCA  MP2 
------------------------------------------------------------------------------


-------------
RI-MP2 ENERGY
-------------
Dimension of the orbital basis            ... 1614
Dimension of the AuxC basis               ... 3774
Memory devoted to MP2                     ... 4096 MB   
Data format for matrix containers         ... DOUBLE
Compression type for matrix containers    ... UNCOMPRESSED
Scaling for aa/bb pairs                   ...   5.710e-02
Scaling for ab pairs                      ...   5.979e-01
Overall scaling of the MP2 energy         ...   1.000e+00

-----------------------
SHARK RI TRANSFORMATION
-----------------------

Number of basis functions                ...   1614
Number of aux functions                  ...   3774
Number of operators                      ...      1
Generation of IJK                        ... NO
Generation of IAK                        ... YES
Generation of ABK                        ... NO
Orbital Range Operator  0:    0-  71 to   72-1613

Aux basis identifier                     ...   AUXC
Contraction scheme used                  ... SEGMENTED
Do orthogonalization                     ... YES
All operator combinations                ... NO
Transpose (ia|K)                         ... NO
Integral generator used                  ... LIBINT
Starting integral generation + trafo... 
Half trafo (segmented) done. Total time =  4.3 sec. integrals=  1.0 sec trafo=  2.0 sec
Integral generation and half transformation done (  4.3 sec)

Reading or making V^(-1/2)          ... done (  0.2 sec)
Sorting IAK integrals               ... done (  5.3 sec)

SHARK RI integral transformation done. Total time =  9.9 sec.

Opening buffers                              ... done

Starting loop over batches of integrals:

Operator 0  - window                       ... (  0- 71)x( 72-1613)
Operator 0  - Memory available             ...  4096 MB
Operator 0  - Memory needed per MO         ...  44.4 MB
Operator 0  - Number of orbitals per batch ... 1
Operator 0  - Number of batches            ... 1

OPERATOR  0   PASS   0:  MOs     0 ...    0 +    1 ...    1 +    2 ...    2 +    3 ...    3
                            +    4 ...    4 +    5 ...    5 +    6 ...    6 +    7 ...    7
                            +    8 ...    8 +    9 ...    9 +   10 ...   10 +   11 ...   11
                            +   12 ...   12 +   13 ...   13 +   14 ...   14 +   15 ...   15
                            +   16 ...   16 +   17 ...   17 +   18 ...   18 +   19 ...   19
                            +   20 ...   20 +   21 ...   21 +   22 ...   22 +   23 ...   23
                            +   24 ...   24 +   25 ...   25 +   26 ...   26 +   27 ...   27
                            +   28 ...   28 +   29 ...   29 +   30 ...   30 +   31 ...   31
                            +   32 ...   32 +   33 ...   33 +   34 ...   34 +   35 ...   35
                            +   36 ...   36 +   37 ...   37 +   38 ...   38 +   39 ...   39
                            +   40 ...   40 +   41 ...   41 +   42 ...   42 +   43 ...   43
                            +   44 ...   44 +   45 ...   45 +   46 ...   46 +   47 ...   47
                            +   48 ...   48 +   49 ...   49 +   50 ...   50 +   51 ...   51
                            +   52 ...   52 +   53 ...   53 +   54 ...   54 +   55 ...   55
                            +   56 ...   56 +   57 ...   57 +   58 ...   58 +   59 ...   59
                            +   60 ...   60 +   61 ...   61 +   62 ...   62 +   63 ...   63
                            +   64 ...   64 +   65 ...   65 +   66 ...   66 +   67 ...   67
                            +   68 ...   68 +   69 ...   69 +   70 ...   70 +   71 ...   71
  Reading integrals       ... ok
Time spent in pair loops =    25.726 sec

-----------------------------------------------
 RI-MP2 CORRELATION ENERGY:     -2.163154117 Eh
-----------------------------------------------


-------
TIMINGS
-------

Total time                :   38.501 sec
Integral trafo            :   10.164 sec ( 26.4%)
I/O of integrals          :    0.047 sec (  0.1%)
K(i,j) operators          :    0.317 sec (  0.8%)
T(i,j) pair energies      :    0.058 sec (  0.2%)
V**(-1/2)                 :    2.609 sec (  6.8%)


---------------------------------------
MP2 TOTAL ENERGY:     -844.614337589 Eh
---------------------------------------

Maximum memory used throughout the entire MP2-calculation: 335.5 MB


-------------------------------------------------------------------------------
                          DFT DISPERSION CORRECTION                            
                                                                               
                                DFTD4 V3.4.0                                   
-------------------------------------------------------------------------------
The REV-DSD-PBEP86-2021 functional is recognized
A user input s6-coefficient scaling factor has been recognized
A user input a1-coefficient scaling factor has been recognized
A user input s8-coefficient scaling factor has been recognized
A user input a2-coefficient scaling factor has been recognized
A user input s9-coefficient scaling factor has been recognized
Active option DFTDOPT                   ...         5   

-------------------------   ----------------
Dispersion correction           -0.034560731
-------------------------   ----------------


-------------------------   --------------------
FINAL SINGLE POINT ENERGY      -844.648898320052
-------------------------   --------------------



           ************************************************************
           *        Program running with 104 parallel MPI-processes   *
           *              working on a common directory               *
           ************************************************************

------------------------------------------------------------------------------
                              ORCA PROPERTY CALCULATIONS
------------------------------------------------------------------------------

GBWName                                 ... compas3D_hc_c22h12_0pent_2_qz_riri.gbw
Number of atoms                         ...     34
Number of basis functions               ...   1614
Max core memory                         ...   1024 MB

Electric properties:
Dipole moment                           ... YES
Quadrupole moment                       ...  NO
Static polarizability (Dipole/Dipole)   ...  NO
Static polarizability (Dipole/Quad.)    ...  NO
Static polarizability (Quad./Quad.)     ...  NO
Static polarizability (Velocity)        ...  NO

Atomic electric properties:
Dipole moment                           ...  NO
Quadrupole moment                       ...  NO
Static polarizability                   ...  NO

Choice of electric origin               ... Center of mass
Position of electric origin             ...    -0.000167     0.000000     0.000055

General magnetic properties:
Magnetizability                         ...  NO

EPR properties:
g-Tensor (aka g-matrix)                 ...  NO
Zero-Field splitting spin-orbit         ...  NO
Zero-field splitting spin-spin          ...  NO
Hyperfine couplings                     ...  NO (   0 nuclei)
Quadrupole couplings                    ...  NO (   0 nuclei)
Contact density                         ...  NO (   0 nuclei)

NMR properties:
Chemical shifts                         ...  NO (   0 nuclei)
Spin-rotation constants                 ...  NO (   0 nuclei)
Spin-spin couplings                     ...  NO (   0 nuclei,    0 pairs)

Choice of magnetic origin               ... GIAO
Position of magnetic origin             ...     0.000000     0.000000     0.000000

Properties with geometric perturbations:
SCF Hessian                             ...  NO
IR spectrum                             ...  NO
VCD spectrum                            ...  NO
X-ray spectroscopy properties:
SCF XES/XAS/RIXS spectra                ...  NO


-------------
DIPOLE MOMENT
-------------

Method             : SCF
Type of density    : Electron Density
Multiplicity       :   1
Irrep              :   0
Energy             :  -842.4511834723934953 Eh
Relativity type    : 
Basis              : AO
                                X                 Y                 Z
Electronic contribution:      0.000000069       0.000000265      -0.000008641
Nuclear contribution   :      0.000000052      -0.000000208       0.000009931
                        -----------------------------------------
Total Dipole Moment    :      0.000000122       0.000000056       0.000001289
                        -----------------------------------------
Magnitude (a.u.)       :      0.000001296
Magnitude (Debye)      :      0.000003295



--------------------
Rotational spectrum 
--------------------
 
Rotational constants in cm-1:             0.020934             0.008240             0.005913 
Rotational constants in MHz :           627.583883           247.027857           177.256598 

Dipole components along the rotational axes: 
x,y,z [a.u.] :    -0.000000     0.000000     0.000001 
x,y,z [Debye]:    -0.000000     0.000000     0.000003 

 

Dipole moment calculation done in   0.2 sec 

Maximum memory used throughout the entire PROP-calculation: 186.6 MB

--------------------------------
SUGGESTED CITATIONS FOR THIS RUN
--------------------------------

Below you find a list of papers that are relevant to this ORCA run
We neither can nor want to force you to cite these papers, but we appreciate if you do
You receive ORCA, which is the product of decades of hard work by many enthusiastic individuals, for free
The only thing we kindly ask in return is that you cite our papers,
We deeply appreciate it, if you show your appreciation for ORCA by not just citing the generic ORCA reference.

Please note that relegating all ORCA citations to the supporting information does *not* help us.
SI sections are not indexed - citations you put there will not count into any citation statistics
But we need these citations in order to attract the funding resources that allow us to do what we are doing

Therefore, if you are a happy ORCA user, please consider citing a few of the papers listed below in the main body of your paper

In addition to the list printed below, the program has created the file compas3D_hc_c22h12_0pent_2_qz_riri.bibtex that contains the list in bibtex format
You can import this file easily into all common literature databanks and citation aid programs


List of essential papers. We consider these as the minimum necessary citations

  1. Neese,F.
     Software update: the ORCA program system, version 5.0
     WIRES Comput. Molec. Sci., 2022 12(1)e1606
     doi.org/10.1002/wcms.1606

List of papers to cite with high priority. The work reported in these papers was absolutely
necessary for this run to complete.
Our perspective: the developers of density functionals and basis sets usually get cited in chemistry papers
Good! But without the algorithms to do something with them, the functionals or basis sets would not do anything.
Hence, in our opinion, the algorithm design and method developments papers are equally worthy of getting cited

  1. Neese,F.
     An improvement of the resolution of the identity approximation for the formation of the Coulomb matrix
     J. Comp. Chem., 2003 24(14)1740-1747
     doi.org/10.1002/jcc.10318
  2. Kossmann,S.; Neese,F.
     Comparison of two efficient approximate Hartee-Fock approaches
     Chem. Phys. Lett., 2009 481 240-243
     doi.org/10.1016/j.cplett.2009.09.073
  3. Neese,F.
     The SHARK Integral Generation and Digestion System
     J. Comp. Chem., 2022  1-16
     doi.org/10.1002/jcc.26942
  4. Caldeweyher,E.; Bannwarth,C.; Grimme,S.
     Extension of the D3 dispersion coefficient model
     J. Chem. Phys., 2017 147 034112
     doi.org/10.1063/1.4993215
  5. Caldeweyher,E.; Ehlert,S.; Hansen,A.; Neugebauer,H.; Spicher,S.; Bannwarth,C.; Grimme,S.
     A generally applicable atomic-charge dependent London dispersion correction
     J. Chem. Phys., 2019 150 154122
     doi.org/10.1063/1.5090222
  6. Caldeweyher,E.; Mewes,J.; Ehlert,S.; Grimme,S.
     Extension and evaluation of the D4 London-dispersion model for periodic systems
     Phys. Chem. Chem. Phys., 2020 22(16)8499-8512
     doi.org/10.1039/D0CP00502A
  7. Wittmann,L.; Gordiy,I.; Friede,M.; Helmich-Paris,B.; Grimme,S.; Hansen,A.; Bursch,M.
     Extension of the D3 and D4 London Dispersion Corrections to the full Actinides Series
     Phys. Chem. Chem. Phys., 2024 26(32)21379-21394
     doi.org/https://doi.org/10.1039/D4CP01514B 

List of suggested additional citations. These are papers that are important in the 'surrounding' of 
of this run, or papers that preceded the highly important papers. If you like your results we are grateful for a citation.

  1. Neese,F.
     The ORCA program system
     WIRES Comput. Molec. Sci., 2012 2(1)73-78
     doi.org/10.1002/wcms.81
  2. Neese,F.
     Software update: the ORCA program system, version 4.0
     WIRES Comput. Molec. Sci., 2018 8(1)1-6
     doi.org/10.1002/wcms.1327
  3. Neese,F.; Wennmohs,F.; Becker,U.; Riplinger,C.
     The ORCA quantum chemistry program package
     J. Chem. Phys., 2020 152 Art. No. L224108
     doi.org/10.1063/5.0004608

List of optional additional citations

  1. Neese,F.
     Approximate second-order SCF convergence for spin unrestricted wavefunctions
     Chem. Phys. Lett., 2000 325(1-3)93-98
     doi.org/10.1016/s0009-2614(00)00662-x

Timings for individual modules:

Sum of individual times          ...      260.546 sec (=   4.342 min)
Startup calculation              ...       24.612 sec (=   0.410 min)   9.4 %
SCF iterations                   ...      162.244 sec (=   2.704 min)  62.3 %
Property calculations            ...       17.579 sec (=   0.293 min)   6.7 %
MP2 module                       ...       56.110 sec (=   0.935 min)  21.5 %
                             ****ORCA TERMINATED NORMALLY****
TOTAL RUN TIME: 0 days 0 hours 4 minutes 37 seconds 573 msec
