
                                 *****************
                                 * O   R   C   A *
                                 *****************

                                            #,                                       
                                            ###                                      
                                            ####                                     
                                            #####                                    
                                            ######                                   
                                           ########,                                 
                                     ,,################,,,,,                         
                               ,,#################################,,                 
                          ,,##########################################,,             
                       ,#########################################, ''#####,          
                    ,#############################################,,   '####,        
                  ,##################################################,,,,####,       
                ,###########''''           ''''###############################       
              ,#####''   ,,,,##########,,,,          '''####'''          '####       
            ,##' ,,,,###########################,,,                        '##       
           ' ,,###''''                  '''############,,,                           
         ,,##''                                '''############,,,,        ,,,,,,###''
      ,#''                                            '''#######################'''  
     '                                                          ''''####''''         
             ,#######,   #######,   ,#######,      ##                                
            ,#'     '#,  ##    ##  ,#'     '#,    #''#        ,####,   ,####,        
            ##       ##  ##   ,#'  ##            #'  '#       #'       #'  '#        
            ##       ##  #######   ##           ,######,      #####,   #    #        
            '#,     ,#'  ##    ##  '#,     ,#' ,#      #,     #,   #   #,  ,#        
             '#######'   ##     ##  '#######'  #'      '#     '####' # '####'        



                #########################################################
                #                        -***-                          #
                #          Department of theory and spectroscopy        #
                #                                                       #
                #                      Frank Neese                      #
                #                                                       #
                #     Directorship, Architecture, Infrastructure        #
                #                    SHARK, DRIVERS                     #
                #        Core code/Algorithms in most modules           #
                #                                                       #
                #        Max Planck Institute fuer Kohlenforschung      #
                #                Kaiser Wilhelm Platz 1                 #
                #                 D-45470 Muelheim/Ruhr                 #
                #                      Germany                          #
                #                                                       #
                #                  All rights reserved                  #
                #                        -***-                          #
                #########################################################


                         Program Version 6.0.1  -  RELEASE   -


 With contributions from (in alphabetic order):
[Max-Planck-Institut fuer Kohlenforschung]                               
  Daniel Aravena         : Magnetic Suceptibility                        
  Michael Atanasov       : Ab Initio Ligand Field Theory (pilot matlab implementation)
  Alexander A. Auer      : GIAO ZORA, VPT2 properties, NMR spectrum      
  Ute Becker             : All parallelization in ORCA, NUMFREQ, NUMCALC 
  Giovanni Bistoni       : ED, misc. LED, open-shell LED, HFLD           
  Martin Brehm           : Molecular dynamics                            
  Dmytro Bykov           : pre 5.0 version of the SCF Hessian            
  Marcos Casanova-Páez   : Triplet and SCS-CIS(D). UHF-(DLPNO)-IP/EA/STEOM-CCSD. UHF-CVS-IP/STEOM-CCSD   
  Vijay G. Chilkuri      : MRCI spin determinant printing, contributions to CSF-ICE 
  Pauline Colinet        : FMM embedding                                 
  Dipayan Datta          : RHF DLPNO-CCSD density                        
  Achintya Kumar Dutta   : EOM-CC, STEOM-CC                              
  Nicolas Foglia         : Exact transition moments, OPA infrastructure, MCD improvements    
  Dmitry Ganyushin       : Spin-Orbit,Spin-Spin,Magnetic field MRCI      
  Miquel Garcia-Rates    : C-PCM and meta-GGA Hessian, CCSD/C-PCM, Gaussian charge scheme 
  Tiago L. C. Gouveia    : GS-ROHF, GS-ROCIS                             
  Yang Guo               : DLPNO-NEVPT2, F12-NEVPT2, CIM, IAO-localization        
  Andreas Hansen         : Spin unrestricted coupled pair/coupled cluster methods 
  Ingolf Harden          : AUTO-CI MPn and infrastructure                
  Benjamin Helmich-Paris : MC-RPA, TRAH-(SCF,CASSCF), AVAS, COSX integrals, SCF dyn. polar. 
  Lee Huntington         : MR-EOM, pCC                                   
  Robert Izsak           : Overlap fitted RIJCOSX, COSX-SCS-MP3, EOM     
  Riya Kayal             : Wick's Theorem for AUTO-CI, AUTO-CI UHF-CCSDT 
  Emily Kempfer          : AUTO-CI, RHF CISDT and CCSDT                  
  Christian Kollmar      : KDIIS, OOCD, Brueckner-CCSD(T), CCSD density, CASPT2, CASPT2-K, improved NEVPT2 
  Axel Koslowski         : Symmetry handling                             
  Simone Kossmann        : meta-GGA functionals, TD-DFT gradient, OOMP2, (MP2 Hessian; deprecated post 5.0) 
  Lucas Lang             : DCDCAS                                        
  Marvin Lechner         : AUTO-CI (C++ implementation), FIC-MRCC        
  Spencer Leger          : CASSCF response                               
  Dagmar Lenk            : GEPOL surface, SMD, ORCA-2-JSON               
  Dimitrios Liakos       : Extrapolation schemes; Compound Job, initial MDCI parallelization 
  Dimitrios Manganas     : Further ROCIS development; embedding schemes. LFT, Crystal Embedding 
  Dimitrios Pantazis     : SARC Basis sets                               
  Anastasios Papadopoulos: AUTO-CI, single reference methods and gradients 
  Taras Petrenko         : pre 6.0 DFT Hessian and TD-DFT gradient, (ASA, deprecated), ECA, 1-Electron XAS/XES, NRVS 
  Peter Pinski           : DLPNO-MP2, DLPNO-MP2 Gradient                 
  Christoph Reimann      : Effective Core Potentials                     
  Marius Retegan         : Local ZFS, SOC                                
  Christoph Riplinger    : Optimizer, TS searches, QM/MM, DLPNO-CCSD(T), (RO)-DLPNO pert. Triples 
  Michael Roemelt        : Original ROCIS implementation                 
  Masaaki Saitow         : Open-shell DLPNO-CCSD energy and density      
  Barbara Sandhoefer     : DKH picture change effects                    
  Kantharuban Sivalingam : CASSCF convergence/infrastructure, NEVPT2 and variants, FIC-MRCI 
  Bernardo de Souza      : ESD, SOC TD-DFT                               
  Georgi L. Stoychev     : AutoAux, RI-MP2 NMR, DLPNO-MP2 response, X2C  
  Van Anh Tran           : RI-MP2 g-tensors                              
  Willem Van den Heuvel  : Paramagnetic NMR                              
  Zikuan Wang            : NOTCH, Electric field optimization            
  Frank Wennmohs         : Technical directorship and infrastructure     
  Hang Xu                : AUTO-CI-Response properties                   
                                                                         
[FACCTs GmbH]                                                            
  Markus Bursch, Miquel Garcia-Rates, Christoph Riplinger, Bernardo de Souza, Georgi L. Stoychev 
                                                                 
  APM, Basis sets (HGBS, AHGBS, def-TZVP (Ac-Lr), def2-XVPD (La-Lu)), CI-OPT, improved COSX, DLPNO-Multilevel,           
  DOCKER, DRACO, updates on ESD, GOAT, IRC, LR-CPCM, MBIS, meta-GGA TD-DFT gradient, ML-optimized integration grids, 
  MM, NACMEs, nearIR, NEB, NEB-TS, NL-DFT gradient (VV10), 2- and 3-layer-ONIOM, interface openCOSMO-RS, QMMM,   
  Crystal-QMMM, SF, symmetry and pop. for TD-DFT, r2SCAN hybrids, SOLVATOR                                   
                                                                         
[Other institutions]                                                     
  V. Asgeirsson          : NEB                                           
  Christoph Bannwarth    : sTDA-DFT, sTD-DFT, PBEh-3c, B97-3c, D3        
  Sebastian Ehlert       : rSCAN, r2SCAN, r2SCAN-3c, D4, dhf basis sets  
  Marvin Friede          : D4 for Fr, Ra, Ac-Lr                          
  Lars Goerigk           : TD-DFT with DH, B97 family of functionals     
  Stefan Grimme          : VdW corrections, initial TS optimization, DFT functionals, gCP, sTDA/sTD-DF 
  Waldemar Hujo          : DFT-NL                                        
  H. Jonsson             : NEB                                           
  Holger Kruse           : gCP                                           
  Marcel Mueller         : wB97X-3c, vDZP basis set                      
  Hagen Neugebauer       : wr2SCAN                                       
  Tobias Risthaus        : range-separated hybrid DFT                    
  Lukas Wittmann         : regularized MP2, r2SCAN double-hybrids, wr2SCAN        
                                                                         
We gratefully acknowledge several colleagues who have allowed us to      
interface, adapt or use parts of their codes:                            
  Ed Valeev, F. Pavosevic, A. Kumar             : LibInt (2-el integral package), F12 methods 
  Garnet Chan, S. Sharma, J. Yang, R. Olivares  : DMRG                   
  Ulf Ekstrom                                   : XCFun DFT Library      
  Mihaly Kallay                                 : mrcc  (arbitrary order and MRCC methods)
  Frank Weinhold                                : gennbo (NPA and NBO analysis)           
  Simon Mueller                                 : openCOSMO-RS                            
  Christopher J. Cramer and Donald G. Truhlar   : smd solvation model                     
  S Lehtola, MJT Oliveira, MAL Marques          : LibXC Library                           
  Liviu Ungur et al                             : ANISO software                          


 Your calculation uses the libint2 library for the computation of 2-el integrals
 For citations please refer to: http://libint.valeyev.net

 Your ORCA version has been built with support for libXC version: 6.2.2
 For citations please refer to: https://libxc.gitlab.io

 This ORCA versions uses:
   CBLAS   interface :  Fast vector & matrix operations
   LAPACKE interface :  Fast linear algebra routines
   SCALAPACK package :  Parallel linear algebra routines
   Shared memory     :  Shared parallel matrices
   BLAS/LAPACK       :  OpenBLAS 0.3.27  USE64BITINT DYNAMIC_ARCH NO_AFFINITY SapphireRapids SINGLE_THREADED
        Core in use  :  SapphireRapids
   Copyright (c) 2011-2014, The OpenBLAS Project


Warning! Weird basis set assignment to AuxJK basis!


***************************************
The coordinates will be read from file: /g/data/kx58/rs2200/dhdft/inputs/compas3D-xyzs/hc_c20h12_0pent_1.xyz
***************************************


Your calculation utilizes the atom-pairwise dispersion correction
based on EEQ partial charges (D4)


================================================================================

----- Orbital basis set information -----
Your calculation utilizes the basis: def2-QZVPP
   F. Weigend and R. Ahlrichs, Phys. Chem. Chem. Phys. 7, 3297 (2005).

----- AuxC basis set information -----
Your calculation utilizes the auxiliary basis: def2-QZVPP/C
  H-La, Hf-Rn : A. Hellweg, C. Hattig, S. Hofener and W. Klopper, Theor. Chem. Acc. 117, 587 (2007).
        Ce-Lu : J. Chmela and M. E. Harding, Mol. Phys. (2018).

----- AuxJK basis set information -----
Your calculation utilizes the auxiliary basis: def2-QZVPP/C
  H-La, Hf-Rn : A. Hellweg, C. Hattig, S. Hofener and W. Klopper, Theor. Chem. Acc. 117, 587 (2007).
        Ce-Lu : J. Chmela and M. E. Harding, Mol. Phys. (2018).

================================================================================
                                        WARNINGS
                       Please study these warnings very carefully!
================================================================================


WARNING: No MP2 level density has been requested!
         To calculate MP2 level properties use
         %mp2 Density relaxed end
         or
         %mp2 Density unrelaxed end
         Otherwise for double-hybrid DFT only the energy is correct!

================================================================================
                                       INPUT FILE
================================================================================
NAME = compas3D_hc_c20h12_0pent_1_qz_riri.inp
|  1> ! RKS revDSD-PBEP86-D4/2021 defgrid3  RIJK NOPOP NoFrozencore NoUseSym
|  2> 
|  3> %basis
|  4> Basis "def2-QZVPP"
|  5> AuxJK "def2-QZVPP/C"
|  6> AuxC "def2-QZVPP/C"
|  7> end
|  8> 
|  9> %method
| 10> ScalHFX 0.69
| 11> ScalDFX 0.31
| 12> ScalDFC 0.4038
| 13> ScalLDAC 0.4038
| 14> 
| 15> D4S6 0.4612
| 16> D4S8 0.0
| 17> D4A1 0.44
| 18> D4A2 3.60
| 19> end
| 20> 
| 21> %mp2
| 22> PS 0.5979
| 23> PT 0.0571
| 24> 
| 25> end
| 26> 
| 27> %pal
| 28> nprocs 104
| 29> end
| 30> 
| 31> *XYZFILE 0 1 /g/data/kx58/rs2200/dhdft/inputs/compas3D-xyzs/hc_c20h12_0pent_1.xyz
| 32> 
| 33>                          ****END OF INPUT****
================================================================================

                       ****************************
                       * Single Point Calculation *
                       ****************************

---------------------------------
CARTESIAN COORDINATES (ANGSTROEM)
---------------------------------
  C      1.476182   -0.023224    0.001857
  C      0.495946   -1.050247    0.001806
  C     -0.905411   -0.727210    0.000204
  C     -1.337060    0.625169   -0.001299
  C     -0.333471    1.697701   -0.002595
  C      1.043452    1.380460   -0.001250
  C      2.823446   -0.389134    0.004809
  C      3.215460   -1.726100    0.006894
  C      2.265387   -2.731163    0.006176
  C      0.900623   -2.413009    0.003804
  C     -0.100451   -3.445205    0.003580
  C     -1.417846   -3.141437    0.002055
  C     -1.866009   -1.775204    0.000601
  C     -3.232424   -1.464062   -0.000206
  C     -3.646557   -0.144420   -0.001180
  C     -2.708715    0.885943   -0.001710
  C     -0.713142    3.053766   -0.005618
  C      0.220634    4.069929   -0.007329
  C      1.583080    3.756081   -0.006261
  C      1.978292    2.433732   -0.003335
  H      3.598863    0.374878    0.005679
  H      4.278300   -1.975552    0.009111
  H      2.566859   -3.780878    0.007609
  H      0.231784   -4.485649    0.004795
  H     -2.171994   -3.931532    0.002011
  H     -3.962488   -2.276455    0.000087
  H     -4.711224    0.097087   -0.001530
  H     -3.071626    1.912150   -0.002394
  H     -1.768582    3.320337   -0.006854
  H     -0.107010    5.111302   -0.009692
  H      2.332780    4.549691   -0.007890
  H      3.043919    2.211257   -0.002937

----------------------------
CARTESIAN COORDINATES (A.U.)
----------------------------
  NO LB      ZA    FRAG     MASS         X           Y           Z
   0 C     6.0000    0    12.011    2.789580   -0.043887    0.003509
   1 C     6.0000    0    12.011    0.937201   -1.984679    0.003412
   2 C     6.0000    0    12.011   -1.710979   -1.374229    0.000385
   3 C     6.0000    0    12.011   -2.526678    1.181398   -0.002454
   4 C     6.0000    0    12.011   -0.630169    3.208189   -0.004904
   5 C     6.0000    0    12.011    1.971839    2.608692   -0.002363
   6 C     6.0000    0    12.011    5.335540   -0.735357    0.009088
   7 C     6.0000    0    12.011    6.076339   -3.261856    0.013028
   8 C     6.0000    0    12.011    4.280962   -5.161151    0.011672
   9 C     6.0000    0    12.011    1.701931   -4.559927    0.007188
  10 C     6.0000    0    12.011   -0.189824   -6.510494    0.006766
  11 C     6.0000    0    12.011   -2.679341   -5.936456    0.003882
  12 C     6.0000    0    12.011   -3.526247   -3.354650    0.001135
  13 C     6.0000    0    12.011   -6.108396   -2.766676   -0.000388
  14 C     6.0000    0    12.011   -6.890995   -0.272914   -0.002229
  15 C     6.0000    0    12.011   -5.118729    1.674189   -0.003232
  16 C     6.0000    0    12.011   -1.347642    5.770781   -0.010616
  17 C     6.0000    0    12.011    0.416938    7.691051   -0.013850
  18 C     6.0000    0    12.011    2.991588    7.097965   -0.011831
  19 C     6.0000    0    12.011    3.738431    4.599087   -0.006302
  20 H     1.0000    0     1.008    6.800866    0.708417    0.010732
  21 H     1.0000    0     1.008    8.084815   -3.733252    0.017218
  22 H     1.0000    0     1.008    4.850661   -7.144824    0.014380
  23 H     1.0000    0     1.008    0.438009   -8.476648    0.009061
  24 H     1.0000    0     1.008   -4.104474   -7.429519    0.003801
  25 H     1.0000    0     1.008   -7.488017   -4.301877    0.000164
  26 H     1.0000    0     1.008   -8.902922    0.183467   -0.002891
  27 H     1.0000    0     1.008   -5.804533    3.613440   -0.004523
  28 H     1.0000    0     1.008   -3.342135    6.274528   -0.012952
  29 H     1.0000    0     1.008   -0.202219    9.658961   -0.018315
  30 H     1.0000    0     1.008    4.408316    8.597669   -0.014910
  31 H     1.0000    0     1.008    5.752173    4.178671   -0.005550

--------------------------------
INTERNAL COORDINATES (ANGSTROEM)
--------------------------------
 C      0   0   0     0.000000000000     0.00000000     0.00000000
 C      1   0   0     1.419732646093     0.00000000     0.00000000
 C      2   1   0     1.438108581673   120.68385080     0.00000000
 C      3   2   1     1.419596084746   120.68284182     0.00000000
 C      4   3   2     1.468849000262   119.20005481     0.06228778
 C      5   4   3     1.412997191441   120.12356980   359.94879251
 C      1   2   3     1.396072710931   118.46997349   179.93626175
 C      7   1   2     1.393254073268   121.53656913     0.03713130
 C      8   7   1     1.383037017312   120.26924105     0.00000000
 C      9   8   7     1.401359892168   120.26648334     0.00000000
 C     10   9   8     1.437906835272   121.00060388   180.02571841
 C     11  10   9     1.351964395078   121.13863062   179.96235653
 C      3   2   1     1.421632824551   119.52764578   180.01904947
 C     13   3   2     1.401391599746   119.68062200   179.96464823
 C     14  13   3     1.383098638560   120.25100191     0.00000000
 C     15  14  13     1.393268301362   120.26829458     0.00000000
 C      5   4   3     1.408215894290   121.26080535   179.92804063
 C     17   5   4     1.380045974293   121.77827902   180.02288075
 C     18  17   5     1.398127551352   119.60840573     0.00000000
 C     19  18  17     1.380148222253   119.61204293     0.00000000
 H      7   1   2     1.088570896280   120.22977211   180.04576313
 H      8   7   1     1.091722903576   119.55027366   179.99558080
 H      9   8   7     1.092148509000   120.58725780   179.98826590
 H     11  10   9     1.092202190503   118.16756504   359.96922610
 H     12  11  10     1.092240515525   120.68205812   180.00706950
 H     14  13   3     1.092235225050   119.11675324   179.99871606
 H     15  14  13     1.091714013936   120.20362426   180.01683709
 H     16  15  14     1.088488434826   118.21552792   180.00486539
 H     17   5   4     1.088584241182   119.81591963     0.00000000
 H     18  17   5     1.091702479892   119.95448336   179.99846432
 H     19  18  17     1.091727356354   120.39803947   179.98178452
 H     20  19  18     1.088602376244   118.43233113   179.97675814

---------------------------
INTERNAL COORDINATES (A.U.)
---------------------------
 C      0   0   0     0.000000000000     0.00000000     0.00000000
 C      1   0   0     2.682905884503     0.00000000     0.00000000
 C      2   1   0     2.717631370203   120.68385080     0.00000000
 C      3   2   1     2.682647820956   120.68284182     0.00000000
 C      4   3   2     2.775722342580   119.20005481     0.06228778
 C      5   4   3     2.670177719824   120.12356980   359.94879251
 C      1   2   3     2.638195086700   118.46997349   179.93626175
 C      7   1   2     2.632868633447   121.53656913     0.03713130
 C      8   7   1     2.613561195796   120.26924105     0.00000000
 C      9   8   7     2.648186411260   120.26648334     0.00000000
 C     10   9   8     2.717250124758   121.00060388   180.02571841
 C     11  10   9     2.554842449509   121.13863062   179.96235653
 C      3   2   1     2.686496701394   119.52764578   180.01904947
 C     13   3   2     2.648246329897   119.68062200   179.96464823
 C     14  13   3     2.613677643077   120.25100191     0.00000000
 C     15  14  13     2.632895520647   120.26829458     0.00000000
 C      5   4   3     2.661142377644   121.26080535   179.92804063
 C     17   5   4     2.607908943635   121.77827902   180.02288075
 C     18  17   5     2.642078172345   119.60840573     0.00000000
 C     19  18  17     2.608102164277   119.61204293     0.00000000
 H      7   1   2     2.057100871326   120.22977211   180.04576313
 H      8   7   1     2.063057301889   119.55027366   179.99558080
 H      9   8   7     2.063861579580   120.58725780   179.98826590
 H     11  10   9     2.063963022919   118.16756504   359.96922610
 H     12  11  10     2.064035446716   120.68205812   180.00706950
 H     14  13   3     2.064025449166   119.11675324   179.99871606
 H     15  14  13     2.063040502902   120.20362426   180.01683709
 H     16  15  14     2.056945041762   118.21552792   180.00486539
 H     17   5   4     2.057126089537   119.81591963     0.00000000
 H     18  17   5     2.063018706718   119.95448336   179.99846432
 H     19  18  17     2.063065716420   120.39803947   179.98178452
 H     20  19  18     2.057160359838   118.43233113   179.97675814

---------------------
BASIS SET INFORMATION
---------------------
There are 2 groups of distinct atoms

 Group   1 Type C   : 15s8p3d2f1g contracted to 7s4p3d2f1g pattern {8211111/5111/111/11/1}
 Group   2 Type H   : 7s3p2d1f contracted to 4s3p2d1f pattern {4111/111/11/1}

Atom   0C    basis set group =>   1
Atom   1C    basis set group =>   1
Atom   2C    basis set group =>   1
Atom   3C    basis set group =>   1
Atom   4C    basis set group =>   1
Atom   5C    basis set group =>   1
Atom   6C    basis set group =>   1
Atom   7C    basis set group =>   1
Atom   8C    basis set group =>   1
Atom   9C    basis set group =>   1
Atom  10C    basis set group =>   1
Atom  11C    basis set group =>   1
Atom  12C    basis set group =>   1
Atom  13C    basis set group =>   1
Atom  14C    basis set group =>   1
Atom  15C    basis set group =>   1
Atom  16C    basis set group =>   1
Atom  17C    basis set group =>   1
Atom  18C    basis set group =>   1
Atom  19C    basis set group =>   1
Atom  20H    basis set group =>   2
Atom  21H    basis set group =>   2
Atom  22H    basis set group =>   2
Atom  23H    basis set group =>   2
Atom  24H    basis set group =>   2
Atom  25H    basis set group =>   2
Atom  26H    basis set group =>   2
Atom  27H    basis set group =>   2
Atom  28H    basis set group =>   2
Atom  29H    basis set group =>   2
Atom  30H    basis set group =>   2
Atom  31H    basis set group =>   2
---------------------------------
AUXILIARY/C BASIS SET INFORMATION
---------------------------------
There are 2 groups of distinct atoms

 Group   1 Type C   : 9s8p7d5f3g1h contracted to 9s8p7d5f3g1h pattern {111111111/11111111/1111111/11111/111/1}
 Group   2 Type H   : 6s4p3d2f1g contracted to 6s4p3d2f1g pattern {111111/1111/111/11/1}

Atom   0C    basis set group =>   1
Atom   1C    basis set group =>   1
Atom   2C    basis set group =>   1
Atom   3C    basis set group =>   1
Atom   4C    basis set group =>   1
Atom   5C    basis set group =>   1
Atom   6C    basis set group =>   1
Atom   7C    basis set group =>   1
Atom   8C    basis set group =>   1
Atom   9C    basis set group =>   1
Atom  10C    basis set group =>   1
Atom  11C    basis set group =>   1
Atom  12C    basis set group =>   1
Atom  13C    basis set group =>   1
Atom  14C    basis set group =>   1
Atom  15C    basis set group =>   1
Atom  16C    basis set group =>   1
Atom  17C    basis set group =>   1
Atom  18C    basis set group =>   1
Atom  19C    basis set group =>   1
Atom  20H    basis set group =>   2
Atom  21H    basis set group =>   2
Atom  22H    basis set group =>   2
Atom  23H    basis set group =>   2
Atom  24H    basis set group =>   2
Atom  25H    basis set group =>   2
Atom  26H    basis set group =>   2
Atom  27H    basis set group =>   2
Atom  28H    basis set group =>   2
Atom  29H    basis set group =>   2
Atom  30H    basis set group =>   2
Atom  31H    basis set group =>   2
----------------------------------
AUXILIARY/JK BASIS SET INFORMATION
----------------------------------
There are 2 groups of distinct atoms

 Group   1 Type C   : 9s8p7d5f3g1h contracted to 9s8p7d5f3g1h pattern {111111111/11111111/1111111/11111/111/1}
 Group   2 Type H   : 6s4p3d2f1g contracted to 6s4p3d2f1g pattern {111111/1111/111/11/1}

Atom   0C    basis set group =>   1
Atom   1C    basis set group =>   1
Atom   2C    basis set group =>   1
Atom   3C    basis set group =>   1
Atom   4C    basis set group =>   1
Atom   5C    basis set group =>   1
Atom   6C    basis set group =>   1
Atom   7C    basis set group =>   1
Atom   8C    basis set group =>   1
Atom   9C    basis set group =>   1
Atom  10C    basis set group =>   1
Atom  11C    basis set group =>   1
Atom  12C    basis set group =>   1
Atom  13C    basis set group =>   1
Atom  14C    basis set group =>   1
Atom  15C    basis set group =>   1
Atom  16C    basis set group =>   1
Atom  17C    basis set group =>   1
Atom  18C    basis set group =>   1
Atom  19C    basis set group =>   1
Atom  20H    basis set group =>   2
Atom  21H    basis set group =>   2
Atom  22H    basis set group =>   2
Atom  23H    basis set group =>   2
Atom  24H    basis set group =>   2
Atom  25H    basis set group =>   2
Atom  26H    basis set group =>   2
Atom  27H    basis set group =>   2
Atom  28H    basis set group =>   2
Atom  29H    basis set group =>   2
Atom  30H    basis set group =>   2
Atom  31H    basis set group =>   2


           ************************************************************
           *        Program running with 104 parallel MPI-processes   *
           *              working on a common directory               *
           ************************************************************
------------------------------------------------------------------------------
                             ORCA STARTUP CALCULATIONS
                           -- RI-GTO INTEGRALS CHOSEN --
------------------------------------------------------------------------------
------------------------------------------------------------------------------
                   ___                                                        
                  /   \      - P O W E R E D   B Y -                         
                 /     \                                                     
                 |  |  |   _    _      __       _____    __    __             
                 |  |  |  | |  | |    /  \     |  _  \  |  |  /  |          
                  \  \/   | |  | |   /    \    | | | |  |  | /  /          
                 / \  \   | |__| |  /  /\  \   | |_| |  |  |/  /          
                |  |  |   |  __  | /  /__\  \  |    /   |      \           
                |  |  |   | |  | | |   __   |  |    \   |  |\   \          
                \     /   | |  | | |  |  |  |  | |\  \  |  | \   \       
                 \___/    |_|  |_| |__|  |__|  |_| \__\ |__|  \__/        
                                                                              
                      - O R C A' S   B I G   F R I E N D -                    
                                      &                                       
                       - I N T E G R A L  F E E D E R -                       
                                                                              
 v1 FN, 2020, v2 2021, v3 2022-2024                                           
------------------------------------------------------------------------------


----------------------
SHARK INTEGRAL PACKAGE
----------------------

Number of atoms                             ...     32
Number of basis functions                   ...   1500
Number of shells                            ...    460
Maximum angular momentum                    ...      4
Integral batch strategy                     ... SHARK/LIBINT Hybrid
RI-J (if used) integral strategy            ... SPLIT-RIJ (Revised 2003 algorithm where possible)
Printlevel                                  ...      1
Contraction scheme used                     ... SEGMENTED contraction
Prescreening option                         ... SCHWARTZ
   Thresh                                   ... 1.000e-10
   Tcut                                     ... 1.000e-11
   Tpresel                                  ... 1.000e-11 
Coulomb Range Separation                    ... NOT USED
Exchange Range Separation                   ... NOT USED
Multipole approximations                    ... NOT USED
Finite Nucleus Model                        ... NOT USED
CABS basis                                  ... NOT available
Auxiliary Coulomb fitting basis             ... NOT available
Auxiliary J/K fitting basis                 ... AVAILABLE
   # of basis functions in Aux-JK           ...   3492
   # of shells in Aux-JK                    ...    852
   Maximum angular momentum in Aux-JK       ...      5
Auxiliary Correlation fitting basis         ... AVAILABLE
   # of basis functions in Aux-C            ...   3492
   # of shells in Aux-C                     ...    852
   Maximum angular momentum in Aux-C        ...      5
Auxiliary 'external' fitting basis          ... NOT available

Checking pre-screening integrals            ... done (  0.0 sec) Dimension = 460
Check shell pair data                       ... done (  0.1 sec)
Shell pair information
Shell pair cut-off parameter TPreSel        ...   1.0e-11
Total number of shell pairs                 ...    106030
Shell pairs after pre-screening             ...     70144
Total number of primitive shell pairs       ...    272068
Primitive shell pairs kept                  ...    126187
          la=0 lb=0:  10720 shell pairs
          la=1 lb=0:  15517 shell pairs
          la=1 lb=1:   5315 shell pairs
          la=2 lb=0:   9742 shell pairs
          la=2 lb=1:   7045 shell pairs
          la=2 lb=2:   2346 shell pairs
          la=3 lb=0:   5878 shell pairs
          la=3 lb=1:   4211 shell pairs
          la=3 lb=2:   2680 shell pairs
          la=3 lb=3:    833 shell pairs
          la=4 lb=0:   2316 shell pairs
          la=4 lb=1:   1681 shell pairs
          la=4 lb=2:   1072 shell pairs
          la=4 lb=3:    645 shell pairs
          la=4 lb=4:    143 shell pairs

Calculating one electron integrals          ... done (  1.1 sec)
Calculating RI/JK V-Matrix + Cholesky decomp... done (  1.3 sec)
Calculating RI/C V-Matrix + Cholesky decomp.... done (  1.7 sec)
Calculating Nuclear repulsion               ... done (  0.0 sec) ENN=   1371.690406625679 Eh

Diagonalization of the overlap matrix:
Smallest eigenvalue                        ... 7.318e-08
Time for diagonalization                   ...    0.449 sec
Threshold for overlap eigenvalues          ... 1.000e-07
Number of eigenvalues below threshold      ... 1
Smallest eigenvalue above threshold        ... 2.469e-06

IMPORTANT:
Smallest eigenvalue of S below the DiffSThresh (1.000e-06) while
Thresh>1e-12 and/or TCut>1e-13! In order to avoid SCF convergence issues,
Thresh will be set to at least 1e-12 and TCut to at least 1e-13.
This can be turned off by adding %SCF DiffSThresh -1 END to the input.

Time for construction of square roots      ...    0.292 sec
Total time needed                          ...    0.800 sec

-------------------
DFT GRID GENERATION
-------------------

General Integration Accuracy     IntAcc      ... 4.959
Radial Grid Type                 RadialGrid  ... OptM3 with GC (2021)
Angular Grid (max. ang.)         AngularGrid ... 6 (Lebedev-590)
Angular grid pruning method      GridPruning ... 4 (adaptive)
Weight generation scheme         WeightScheme... mBecke (2022)
Basis function cutoff            BFCut       ... 1.0000e-10
Integration weight cutoff        WCut        ... 1.0000e-14
Partially contracted basis set               ... off
Rotationally invariant grid construction     ... off
Angular grids for H and He will be reduced by one unit
Diffuse basis detected: some atoms will have their outermost
                        angular grid increased by 1.

Total number of grid points                  ...   393622
Total number of batches                      ...     6165
Average number of points per batch           ...       63
Average number of grid points per atom       ...    12301
Initializing property integral containers    ... done (  0.1 sec)

SHARK setup successfully completed in 111.3 seconds

Maximum memory used throughout the entire STARTUP-calculation: 157.5 MB


           ************************************************************
           *        Program running with 104 parallel MPI-processes   *
           *              working on a common directory               *
           ************************************************************
-------------------------------------------------------------------------------
                                 ORCA GUESS
                   Start orbitals & Density for SCF / CASSCF
-------------------------------------------------------------------------------

------------
SCF SETTINGS
------------
Hamiltonian:
 Density Functional     Method          .... DFT(GTOs)
 Exchange Functional    Exchange        .... PBE
   PBE kappa parameter   XKappa         ....  0.804000
   PBE mue parameter    XMuePBE         ....  0.219520
 Correlation Functional Correlation     .... P86
 LDA part of GGA corr.  LDAOpt          .... VWN-5
 Gradients option       PostSCFGGA      .... off
 Hybrid DFT is turned on
   Fraction HF Exchange ScalHFX         ....  0.690000
   Scaling of DF-GGA-X  ScalDFX         ....  0.310000
   Scaling of DF-GGA-C  ScalDFC         ....  0.403800
   Scaling of DF-LDA-C  ScalLDAC        ....  0.403800
   Perturbative correction              ....  1.000000
 RI-approximation to the Coulomb term is turned on
   Number of AuxJK basis functions      .... 3492
   RI-JK (J+K treated both via RI)      .... on


General Settings:
 Integral files         IntName         .... compas3D_hc_c20h12_0pent_1_qz_riri
 Hartree-Fock type      HFTyp           .... RHF
 Total Charge           Charge          ....    0
 Multiplicity           Mult            ....    1
 Number of Electrons    NEL             ....  132
 Basis Dimension        Dim             .... 1500
 Nuclear Repulsion      ENuc            ....   1371.6904066257 Eh

Convergence Acceleration:
 AO-DIIS                CNVDIIS         .... on
   Start iteration      DIISMaxIt       ....    12
   Startup error        DIISStart       ....  0.200000
   # of expansion vecs  DIISMaxEq       ....     5
   Bias factor          DIISBfac        ....   1.050
   Max. coefficient     DIISMaxC        ....  10.000
 MO-DIIS                CNVKDIIS        .... off
 Trust-Rad. Augm. Hess. CNVTRAH         .... auto
   Auto Start mean grad. ratio tolernc. ....  1.125000
   Auto Start start iteration           ....    50
   Auto Start num. interpolation iter.  ....    10
   Max. Number of Micro iterations      ....    24
   Max. Number of Macro iterations      .... Maxiter - #DIIS iter
   Number of Davidson start vectors     ....     2
   Converg. threshold    (grad. norm)   ....   5.000e-05
   Grad. Scal. Fac. for Micro threshold ....   0.100
   Minimum threshold for Micro iter.    ....   1.000e-02
   NR start threshold (gradient norm)   ....   1.000e-04
   Initial trust radius                 ....   0.400
   Minimum AH scaling param. (alpha)    ....   1.000
   Maximum AH scaling param. (alpha)    .... 1000.000
   Quad. conv. algorithm                .... NR
   White noise on init. David. guess    .... on
   Maximum white noise                  ....   0.010
   Pseudo random numbers                .... off
   Inactive MOs                         .... canonical
   Orbital update algorithm             .... Taylor
   Preconditioner                       .... Diag
   Full preconditioner red. dimension   ....   250
 SOSCF                  CNVSOSCF        .... on
   Start iteration      SOSCFMaxIt      ....   150
   Startup grad/error   SOSCFStart      ....  0.003300
   Hessian update       SOSCFHessUp     .... L-BFGS
 Level Shifting         CNVShift        .... on
   Level shift para.    LevelShift      ....    0.2500
   Turn off err/grad.   ShiftErr        ....    0.0010
 Zerner damping         CNVZerner       .... off
 Static damping         CNVDamp         .... on
   Fraction old density DampFac         ....    0.7000
   Max. Damping (<1)    DampMax         ....    0.9800
   Min. Damping (>=0)   DampMin         ....    0.0000
   Turn off err/grad.   DampErr         ....    0.1000

SCF Procedure:
 Maximum # iterations   MaxIter         ....   125
 SCF integral mode      SCFMode         .... Direct
   Integral package                     .... SHARK and LIBINT hybrid scheme
 Reset frequency        DirectResetFreq ....    20
 Integral Threshold     Thresh          ....  1.000e-12 Eh
 Primitive CutOff       TCut            ....  1.000e-13 Eh

Convergence Tolerance:
 Convergence Check Mode ConvCheckMode   .... Total+1el-Energy
 Convergence forced     ConvForced      .... 0
 Energy Change          TolE            ....  1.000e-06 Eh
 1-El. energy change                    ....  1.000e-03 Eh
 Orbital Gradient       TolG            ....  5.000e-05
 Orbital Rotation angle TolX            ....  5.000e-05
 DIIS Error             TolErr          ....  1.000e-06

------------------------------
INITIAL GUESS: MODEL POTENTIAL
------------------------------
Loading Hartree-Fock densities                     ... done
Calculating cut-offs                               ... done
Initializing the effective Hamiltonian             ... done
Setting up the integral package (SHARK)            ... done
Starting the Coulomb interaction                   ... done (   0.4 sec)
Making the grid                                    ... done (   0.3 sec)
Mapping shells                                     ... done
Starting the XC term evaluation                    ... done (   0.1 sec)
  promolecular density results
     # of electrons  =    132.009435710
     EX              =   -105.893883111
     EC              =      0.176022967
     EX+EC           =   -105.717860145
Transforming the Hamiltonian                       ... done (   0.3 sec)
Diagonalizing the Hamiltonian                      ... done (   0.3 sec)
Back transforming the eigenvectors                 ... done (   0.2 sec)
Now organizing SCF variables                       ... done
                      ------------------
                      INITIAL GUESS DONE (   2.1 sec)
                      ------------------
             **** ENERGY FILE WAS UPDATED (compas3D_hc_c20h12_0pent_1_qz_riri.en.tmp) ****
Finished Guess after  19.0 sec
Maximum memory used throughout the entire GUESS-calculation: 152.6 MB


           ************************************************************
           *        Program running with 104 parallel MPI-processes   *
           *              working on a common directory               *
           ************************************************************

-------------------------------------------------------------------------------------------
                                      ORCA LEAN-SCF
                              memory conserving SCF solver
-------------------------------------------------------------------------------------------

----------------------------------------D-I-I-S--------------------------------------------
Iteration    Energy (Eh)           Delta-E    RMSDP     MaxDP     DIISErr   Damp  Time(sec)
-------------------------------------------------------------------------------------------
    1    -766.0803386142167710     0.00e+00  2.62e-04  1.93e-02  1.48e-01  0.700  10.9
    2    -765.9331321168122031     1.47e-01  2.32e-04  1.87e-02  1.31e-01  0.700  11.7
                               ***Turning on AO-DIIS***
    3    -766.0227138452048621    -8.96e-02  1.70e-04  1.52e-02  7.66e-02  0.700  11.7
    4    -766.2042681011932928    -1.82e-01  3.32e-04  3.26e-02  4.09e-02  0.000  10.7
    5    -766.4889119302281415    -2.85e-01  8.75e-05  8.14e-03  3.28e-02  0.000  11.6
    6    -766.5009961887092231    -1.21e-02  5.22e-05  5.08e-03  1.54e-02  0.000  10.7
    7    -766.5039904978673349    -2.99e-03  1.94e-05  1.99e-03  4.82e-03  0.000  11.7
                              *** Initializing SOSCF ***
---------------------------------------S-O-S-C-F--------------------------------------
Iteration    Energy (Eh)           Delta-E    RMSDP     MaxDP     MaxGrad    Time(sec)
--------------------------------------------------------------------------------------
    8    -766.5043135515004451    -3.23e-04  6.65e-06  4.99e-04  1.27e-03    12.6
    9    -766.5043436073381145    -3.01e-05  4.85e-06  3.72e-04  1.51e-04    10.2
   10    -766.5043464116749874    -2.80e-06  2.70e-06  1.99e-04  1.17e-04     9.8
   11    -766.5043466983390772    -2.87e-07  9.69e-07  6.95e-05  7.68e-05     9.6
                 **** Energy Check signals convergence ****

               *****************************************************
               *                     SUCCESS                       *
               *           SCF CONVERGED AFTER  11 CYCLES          *
               *****************************************************

             **** ENERGY FILE WAS UPDATED (compas3D_hc_c20h12_0pent_1_qz_riri.en.tmp) ****

----------------
TOTAL SCF ENERGY
----------------

Total Energy       :       -766.50434669833908 Eh          -20857.64366 eV

Components:
Nuclear Repulsion  :       1371.69040662567863 Eh           37325.59356 eV
Electronic Energy  :      -2138.19475332401726 Eh          -58183.23722 eV
One Electron Energy:      -3760.78347599795779 Eh         -102336.12105 eV
Two Electron Energy:       1622.58872267394031 Eh           44152.88383 eV

Virial components:
Potential Energy   :      -1530.69804831832607 Eh          -41652.41146 eV
Kinetic Energy     :        764.19370161998711 Eh           20794.76781 eV
Virial Ratio       :          2.00302363795129

DFT components:
N(Alpha)           :       66.000003190466 electrons
N(Beta)            :       66.000003190466 electrons
N(Total)           :      132.000006380932 electrons
E(X)               :      -33.378592769717 Eh       
E(C)               :       -1.961648814790 Eh       
E(XC)              :      -35.340241584507 Eh       

---------------
SCF CONVERGENCE
---------------

  Last Energy change         ...    2.8666e-07  Tolerance :   1.0000e-06
  Last MAX-Density change    ...    6.9493e-05  Tolerance :   1.0000e-05
  Last RMS-Density change    ...    9.6886e-07  Tolerance :   1.0000e-06
  Last DIIS Error            ...    1.2715e-03  Tolerance :   1.0000e-06
  Last Orbital Gradient      ...    7.6815e-05  Tolerance :   5.0000e-05
  Last Orbital Rotation      ...    1.3326e-04  Tolerance :   5.0000e-05


----------------
ORBITAL ENERGIES
----------------

  NO   OCC          E(Eh)            E(eV) 
   0   2.0000     -10.839357      -294.9539 
   1   2.0000     -10.838952      -294.9429 
   2   2.0000     -10.838632      -294.9342 
   3   2.0000     -10.838134      -294.9206 
   4   2.0000     -10.836394      -294.8733 
   5   2.0000     -10.835714      -294.8548 
   6   2.0000     -10.834517      -294.8222 
   7   2.0000     -10.834456      -294.8205 
   8   2.0000     -10.826938      -294.6160 
   9   2.0000     -10.825801      -294.5850 
  10   2.0000     -10.825781      -294.5845 
  11   2.0000     -10.825711      -294.5826 
  12   2.0000     -10.825670      -294.5815 
  13   2.0000     -10.825319      -294.5719 
  14   2.0000     -10.824608      -294.5526 
  15   2.0000     -10.824544      -294.5508 
  16   2.0000     -10.824528      -294.5504 
  17   2.0000     -10.824112      -294.5391 
  18   2.0000     -10.824088      -294.5384 
  19   2.0000     -10.824054      -294.5375 
  20   2.0000      -1.091255       -29.6946 
  21   2.0000      -1.049940       -28.5703 
  22   2.0000      -1.041738       -28.3471 
  23   2.0000      -0.994474       -27.0610 
  24   2.0000      -0.969579       -26.3836 
  25   2.0000      -0.954948       -25.9854 
  26   2.0000      -0.915877       -24.9223 
  27   2.0000      -0.911509       -24.8034 
  28   2.0000      -0.888417       -24.1750 
  29   2.0000      -0.875541       -23.8247 
  30   2.0000      -0.780606       -21.2414 
  31   2.0000      -0.774883       -21.0856 
  32   2.0000      -0.773897       -21.0588 
  33   2.0000      -0.768115       -20.9015 
  34   2.0000      -0.717970       -19.5370 
  35   2.0000      -0.686833       -18.6897 
  36   2.0000      -0.664862       -18.0918 
  37   2.0000      -0.661509       -18.0006 
  38   2.0000      -0.625563       -17.0224 
  39   2.0000      -0.611755       -16.6467 
  40   2.0000      -0.590897       -16.0791 
  41   2.0000      -0.583963       -15.8904 
  42   2.0000      -0.574265       -15.6266 
  43   2.0000      -0.556314       -15.1381 
  44   2.0000      -0.544924       -14.8281 
  45   2.0000      -0.529677       -14.4133 
  46   2.0000      -0.528745       -14.3879 
  47   2.0000      -0.524897       -14.2832 
  48   2.0000      -0.516003       -14.0412 
  49   2.0000      -0.512811       -13.9543 
  50   2.0000      -0.492591       -13.4041 
  51   2.0000      -0.474717       -12.9177 
  52   2.0000      -0.465368       -12.6633 
  53   2.0000      -0.461648       -12.5621 
  54   2.0000      -0.459309       -12.4984 
  55   2.0000      -0.454987       -12.3808 
  56   2.0000      -0.451752       -12.2928 
  57   2.0000      -0.412989       -11.2380 
  58   2.0000      -0.410537       -11.1713 
  59   2.0000      -0.397927       -10.8282 
  60   2.0000      -0.364882        -9.9289 
  61   2.0000      -0.354251        -9.6397 
  62   2.0000      -0.309483        -8.4215 
  63   2.0000      -0.303873        -8.2688 
  64   2.0000      -0.269506        -7.3336 
  65   2.0000      -0.247441        -6.7332 
  66   0.0000       0.007655         0.2083 
  67   0.0000       0.026162         0.7119 
  68   0.0000       0.043156         1.1743 
  69   0.0000       0.056201         1.5293 
  70   0.0000       0.075008         2.0411 
  71   0.0000       0.080128         2.1804 
  72   0.0000       0.081944         2.2298 
  73   0.0000       0.095426         2.5967 
  74   0.0000       0.096443         2.6243 
  75   0.0000       0.105744         2.8774 
  76   0.0000       0.115667         3.1475 
*Only the first 10 virtual orbitals were printed.
-------
TIMINGS
-------

Total SCF time: 0 days 0 hours 2 min 19 sec 

Total time                  ....     139.452 sec
Sum of individual times     ....     138.909 sec  ( 99.6%)

SCF preparation             ....      16.650 sec  ( 11.9%)
Fock matrix formation       ....      98.266 sec  ( 70.5%)
  Startup                   ....       3.034 sec  (  3.1% of F)
  RI-JK                     ....      79.853 sec  ( 81.3% of F)
  XC integration            ....       9.396 sec  (  9.6% of F)
    XC Preparation          ....       0.000 sec  (  0.0% of XC)
    Basis function eval.    ....       0.630 sec  (  6.7% of XC)
    Density eval.           ....       1.497 sec  ( 15.9% of XC)
    XC-Functional eval.     ....       0.024 sec  (  0.3% of XC)
    XC-Potential eval.      ....       2.285 sec  ( 24.3% of XC)
Diagonalization             ....       0.000 sec  (  0.0%)
Density matrix formation    ....       4.272 sec  (  3.1%)
Total Energy calculation    ....       2.471 sec  (  1.8%)
Population analysis         ....       0.000 sec  (  0.0%)
Orbital Transformation      ....       1.906 sec  (  1.4%)
Orbital Orthonormalization  ....       0.000 sec  (  0.0%)
DIIS solution               ....      12.390 sec  (  8.9%)
SOSCF solution              ....       2.812 sec  (  2.0%)
Finished LeanSCF after 140.1 sec

Maximum memory used throughout the entire LEANSCF-calculation: 420.5 MB


           ************************************************************
           *        Program running with 104 parallel MPI-processes   *
           *              working on a common directory               *
           ************************************************************

------------------------------------------------------------------------------
                                ORCA  MP2 
------------------------------------------------------------------------------


-------------
RI-MP2 ENERGY
-------------
Dimension of the orbital basis            ... 1500
Dimension of the AuxC basis               ... 3492
Memory devoted to MP2                     ... 4096 MB   
Data format for matrix containers         ... DOUBLE
Compression type for matrix containers    ... UNCOMPRESSED
Scaling for aa/bb pairs                   ...   5.710e-02
Scaling for ab pairs                      ...   5.979e-01
Overall scaling of the MP2 energy         ...   1.000e+00

-----------------------
SHARK RI TRANSFORMATION
-----------------------

Number of basis functions                ...   1500
Number of aux functions                  ...   3492
Number of operators                      ...      1
Generation of IJK                        ... NO
Generation of IAK                        ... YES
Generation of ABK                        ... NO
Orbital Range Operator  0:    0-  65 to   66-1499

Aux basis identifier                     ...   AUXC
Contraction scheme used                  ... SEGMENTED
Do orthogonalization                     ... YES
All operator combinations                ... NO
Transpose (ia|K)                         ... NO
Integral generator used                  ... LIBINT
Starting integral generation + trafo... 
Half trafo (segmented) done. Total time =  3.2 sec. integrals=  0.9 sec trafo=  1.8 sec
Integral generation and half transformation done (  3.2 sec)

Reading or making V^(-1/2)          ... done (  0.4 sec)
Sorting IAK integrals               ... done (  4.6 sec)

SHARK RI integral transformation done. Total time =  8.3 sec.

Opening buffers                              ... done

Starting loop over batches of integrals:

Operator 0  - window                       ... (  0- 65)x( 66-1499)
Operator 0  - Memory available             ...  4096 MB
Operator 0  - Memory needed per MO         ...  38.2 MB
Operator 0  - Number of orbitals per batch ... 1
Operator 0  - Number of batches            ... 1

OPERATOR  0   PASS   0:  MOs     0 ...    0 +    1 ...    1 +    2 ...    2 +    3 ...    3
                            +    4 ...    4 +    5 ...    5 +    6 ...    6 +    7 ...    7
                            +    8 ...    8 +    9 ...    9 +   10 ...   10 +   11 ...   11
                            +   12 ...   12 +   13 ...   13 +   14 ...   14 +   15 ...   15
                            +   16 ...   16 +   17 ...   17 +   18 ...   18 +   19 ...   19
                            +   20 ...   20 +   21 ...   21 +   22 ...   22 +   23 ...   23
                            +   24 ...   24 +   25 ...   25 +   26 ...   26 +   27 ...   27
                            +   28 ...   28 +   29 ...   29 +   30 ...   30 +   31 ...   31
                            +   32 ...   32 +   33 ...   33 +   34 ...   34 +   35 ...   35
                            +   36 ...   36 +   37 ...   37 +   38 ...   38 +   39 ...   39
                            +   40 ...   40 +   41 ...   41 +   42 ...   42 +   43 ...   43
                            +   44 ...   44 +   45 ...   45 +   46 ...   46 +   47 ...   47
                            +   48 ...   48 +   49 ...   49 +   50 ...   50 +   51 ...   51
                            +   52 ...   52 +   53 ...   53 +   54 ...   54 +   55 ...   55
                            +   56 ...   56 +   57 ...   57 +   58 ...   58 +   59 ...   59
                            +   60 ...   60 +   61 ...   61 +   62 ...   62 +   63 ...   63
                            +   64 ...   64 +   65 ...   65
  Reading integrals       ... ok
Time spent in pair loops =    20.016 sec

-----------------------------------------------
 RI-MP2 CORRELATION ENERGY:     -1.973862081 Eh
-----------------------------------------------


-------
TIMINGS
-------

Total time                :   30.527 sec
Integral trafo            :    8.469 sec ( 27.7%)
I/O of integrals          :    0.038 sec (  0.1%)
K(i,j) operators          :    0.264 sec (  0.9%)
T(i,j) pair energies      :    0.058 sec (  0.2%)
V**(-1/2)                 :    2.041 sec (  6.7%)


---------------------------------------
MP2 TOTAL ENERGY:     -768.478208779 Eh
---------------------------------------

Maximum memory used throughout the entire MP2-calculation: 293.7 MB


-------------------------------------------------------------------------------
                          DFT DISPERSION CORRECTION                            
                                                                               
                                DFTD4 V3.4.0                                   
-------------------------------------------------------------------------------
The REV-DSD-PBEP86-2021 functional is recognized
A user input s6-coefficient scaling factor has been recognized
A user input a1-coefficient scaling factor has been recognized
A user input s8-coefficient scaling factor has been recognized
A user input a2-coefficient scaling factor has been recognized
A user input s9-coefficient scaling factor has been recognized
Active option DFTDOPT                   ...         5   

-------------------------   ----------------
Dispersion correction           -0.031154985
-------------------------   ----------------


-------------------------   --------------------
FINAL SINGLE POINT ENERGY      -768.509363764442
-------------------------   --------------------



           ************************************************************
           *        Program running with 104 parallel MPI-processes   *
           *              working on a common directory               *
           ************************************************************

------------------------------------------------------------------------------
                              ORCA PROPERTY CALCULATIONS
------------------------------------------------------------------------------

GBWName                                 ... compas3D_hc_c20h12_0pent_1_qz_riri.gbw
Number of atoms                         ...     32
Number of basis functions               ...   1500
Max core memory                         ...   1024 MB

Electric properties:
Dipole moment                           ... YES
Quadrupole moment                       ...  NO
Static polarizability (Dipole/Dipole)   ...  NO
Static polarizability (Dipole/Quad.)    ...  NO
Static polarizability (Quad./Quad.)     ...  NO
Static polarizability (Velocity)        ...  NO

Atomic electric properties:
Dipole moment                           ...  NO
Quadrupole moment                       ...  NO
Static polarizability                   ...  NO

Choice of electric origin               ... Center of mass
Position of electric origin             ...    -0.021301    -0.092933     0.000075

General magnetic properties:
Magnetizability                         ...  NO

EPR properties:
g-Tensor (aka g-matrix)                 ...  NO
Zero-Field splitting spin-orbit         ...  NO
Zero-field splitting spin-spin          ...  NO
Hyperfine couplings                     ...  NO (   0 nuclei)
Quadrupole couplings                    ...  NO (   0 nuclei)
Contact density                         ...  NO (   0 nuclei)

NMR properties:
Chemical shifts                         ...  NO (   0 nuclei)
Spin-rotation constants                 ...  NO (   0 nuclei)
Spin-spin couplings                     ...  NO (   0 nuclei,    0 pairs)

Choice of magnetic origin               ... GIAO
Position of magnetic origin             ...     0.000000     0.000000     0.000000

Properties with geometric perturbations:
SCF Hessian                             ...  NO
IR spectrum                             ...  NO
VCD spectrum                            ...  NO
X-ray spectroscopy properties:
SCF XES/XAS/RIXS spectra                ...  NO


-------------
DIPOLE MOMENT
-------------

Method             : SCF
Type of density    : Electron Density
Multiplicity       :   1
Irrep              :   0
Energy             :  -766.5043466983390772 Eh
Relativity type    : 
Basis              : AO
                                X                 Y                 Z
Electronic contribution:     -0.365929655      -1.590479585       0.002268063
Nuclear contribution   :      0.370438263       1.610633803      -0.002327759
                        -----------------------------------------
Total Dipole Moment    :      0.004508608       0.020154219      -0.000059696
                        -----------------------------------------
Magnitude (a.u.)       :      0.020652449
Magnitude (Debye)      :      0.052494354



--------------------
Rotational spectrum 
--------------------
 
Rotational constants in cm-1:             0.017174             0.012896             0.007365 
Rotational constants in MHz :           514.856181           386.610471           220.805566 

Dipole components along the rotational axes: 
x,y,z [a.u.] :     0.020652    -0.000135    -0.000031 
x,y,z [Debye]:     0.052493    -0.000343    -0.000080 

 

Dipole moment calculation done in   0.3 sec 

Maximum memory used throughout the entire PROP-calculation: 165.4 MB

--------------------------------
SUGGESTED CITATIONS FOR THIS RUN
--------------------------------

Below you find a list of papers that are relevant to this ORCA run
We neither can nor want to force you to cite these papers, but we appreciate if you do
You receive ORCA, which is the product of decades of hard work by many enthusiastic individuals, for free
The only thing we kindly ask in return is that you cite our papers,
We deeply appreciate it, if you show your appreciation for ORCA by not just citing the generic ORCA reference.

Please note that relegating all ORCA citations to the supporting information does *not* help us.
SI sections are not indexed - citations you put there will not count into any citation statistics
But we need these citations in order to attract the funding resources that allow us to do what we are doing

Therefore, if you are a happy ORCA user, please consider citing a few of the papers listed below in the main body of your paper

In addition to the list printed below, the program has created the file compas3D_hc_c20h12_0pent_1_qz_riri.bibtex that contains the list in bibtex format
You can import this file easily into all common literature databanks and citation aid programs


List of essential papers. We consider these as the minimum necessary citations

  1. Neese,F.
     Software update: the ORCA program system, version 5.0
     WIRES Comput. Molec. Sci., 2022 12(1)e1606
     doi.org/10.1002/wcms.1606

List of papers to cite with high priority. The work reported in these papers was absolutely
necessary for this run to complete.
Our perspective: the developers of density functionals and basis sets usually get cited in chemistry papers
Good! But without the algorithms to do something with them, the functionals or basis sets would not do anything.
Hence, in our opinion, the algorithm design and method developments papers are equally worthy of getting cited

  1. Neese,F.
     An improvement of the resolution of the identity approximation for the formation of the Coulomb matrix
     J. Comp. Chem., 2003 24(14)1740-1747
     doi.org/10.1002/jcc.10318
  2. Kossmann,S.; Neese,F.
     Comparison of two efficient approximate Hartee-Fock approaches
     Chem. Phys. Lett., 2009 481 240-243
     doi.org/10.1016/j.cplett.2009.09.073
  3. Neese,F.
     The SHARK Integral Generation and Digestion System
     J. Comp. Chem., 2022  1-16
     doi.org/10.1002/jcc.26942
  4. Caldeweyher,E.; Bannwarth,C.; Grimme,S.
     Extension of the D3 dispersion coefficient model
     J. Chem. Phys., 2017 147 034112
     doi.org/10.1063/1.4993215
  5. Caldeweyher,E.; Ehlert,S.; Hansen,A.; Neugebauer,H.; Spicher,S.; Bannwarth,C.; Grimme,S.
     A generally applicable atomic-charge dependent London dispersion correction
     J. Chem. Phys., 2019 150 154122
     doi.org/10.1063/1.5090222
  6. Caldeweyher,E.; Mewes,J.; Ehlert,S.; Grimme,S.
     Extension and evaluation of the D4 London-dispersion model for periodic systems
     Phys. Chem. Chem. Phys., 2020 22(16)8499-8512
     doi.org/10.1039/D0CP00502A
  7. Wittmann,L.; Gordiy,I.; Friede,M.; Helmich-Paris,B.; Grimme,S.; Hansen,A.; Bursch,M.
     Extension of the D3 and D4 London Dispersion Corrections to the full Actinides Series
     Phys. Chem. Chem. Phys., 2024 26(32)21379-21394
     doi.org/https://doi.org/10.1039/D4CP01514B 

List of suggested additional citations. These are papers that are important in the 'surrounding' of 
of this run, or papers that preceded the highly important papers. If you like your results we are grateful for a citation.

  1. Neese,F.
     The ORCA program system
     WIRES Comput. Molec. Sci., 2012 2(1)73-78
     doi.org/10.1002/wcms.81
  2. Neese,F.
     Software update: the ORCA program system, version 4.0
     WIRES Comput. Molec. Sci., 2018 8(1)1-6
     doi.org/10.1002/wcms.1327
  3. Neese,F.; Wennmohs,F.; Becker,U.; Riplinger,C.
     The ORCA quantum chemistry program package
     J. Chem. Phys., 2020 152 Art. No. L224108
     doi.org/10.1063/5.0004608

List of optional additional citations

  1. Neese,F.
     Approximate second-order SCF convergence for spin unrestricted wavefunctions
     Chem. Phys. Lett., 2000 325(1-3)93-98
     doi.org/10.1016/s0009-2614(00)00662-x

Timings for individual modules:

Sum of individual times          ...      357.689 sec (=   5.961 min)
Startup calculation              ...      130.138 sec (=   2.169 min)  36.4 %
SCF iterations                   ...      161.696 sec (=   2.695 min)  45.2 %
Property calculations            ...       17.414 sec (=   0.290 min)   4.9 %
MP2 module                       ...       48.441 sec (=   0.807 min)  13.5 %
                             ****ORCA TERMINATED NORMALLY****
TOTAL RUN TIME: 0 days 0 hours 6 minutes 29 seconds 733 msec
