
                                 *****************
                                 * O   R   C   A *
                                 *****************

                                            #,                                       
                                            ###                                      
                                            ####                                     
                                            #####                                    
                                            ######                                   
                                           ########,                                 
                                     ,,################,,,,,                         
                               ,,#################################,,                 
                          ,,##########################################,,             
                       ,#########################################, ''#####,          
                    ,#############################################,,   '####,        
                  ,##################################################,,,,####,       
                ,###########''''           ''''###############################       
              ,#####''   ,,,,##########,,,,          '''####'''          '####       
            ,##' ,,,,###########################,,,                        '##       
           ' ,,###''''                  '''############,,,                           
         ,,##''                                '''############,,,,        ,,,,,,###''
      ,#''                                            '''#######################'''  
     '                                                          ''''####''''         
             ,#######,   #######,   ,#######,      ##                                
            ,#'     '#,  ##    ##  ,#'     '#,    #''#        ,####,   ,####,        
            ##       ##  ##   ,#'  ##            #'  '#       #'       #'  '#        
            ##       ##  #######   ##           ,######,      #####,   #    #        
            '#,     ,#'  ##    ##  '#,     ,#' ,#      #,     #,   #   #,  ,#        
             '#######'   ##     ##  '#######'  #'      '#     '####' # '####'        



                #########################################################
                #                        -***-                          #
                #          Department of theory and spectroscopy        #
                #                                                       #
                #                      Frank Neese                      #
                #                                                       #
                #     Directorship, Architecture, Infrastructure        #
                #                    SHARK, DRIVERS                     #
                #        Core code/Algorithms in most modules           #
                #                                                       #
                #        Max Planck Institute fuer Kohlenforschung      #
                #                Kaiser Wilhelm Platz 1                 #
                #                 D-45470 Muelheim/Ruhr                 #
                #                      Germany                          #
                #                                                       #
                #                  All rights reserved                  #
                #                        -***-                          #
                #########################################################


                         Program Version 6.0.1  -  RELEASE   -


 With contributions from (in alphabetic order):
[Max-Planck-Institut fuer Kohlenforschung]                               
  Daniel Aravena         : Magnetic Suceptibility                        
  Michael Atanasov       : Ab Initio Ligand Field Theory (pilot matlab implementation)
  Alexander A. Auer      : GIAO ZORA, VPT2 properties, NMR spectrum      
  Ute Becker             : All parallelization in ORCA, NUMFREQ, NUMCALC 
  Giovanni Bistoni       : ED, misc. LED, open-shell LED, HFLD           
  Martin Brehm           : Molecular dynamics                            
  Dmytro Bykov           : pre 5.0 version of the SCF Hessian            
  Marcos Casanova-Páez   : Triplet and SCS-CIS(D). UHF-(DLPNO)-IP/EA/STEOM-CCSD. UHF-CVS-IP/STEOM-CCSD   
  Vijay G. Chilkuri      : MRCI spin determinant printing, contributions to CSF-ICE 
  Pauline Colinet        : FMM embedding                                 
  Dipayan Datta          : RHF DLPNO-CCSD density                        
  Achintya Kumar Dutta   : EOM-CC, STEOM-CC                              
  Nicolas Foglia         : Exact transition moments, OPA infrastructure, MCD improvements    
  Dmitry Ganyushin       : Spin-Orbit,Spin-Spin,Magnetic field MRCI      
  Miquel Garcia-Rates    : C-PCM and meta-GGA Hessian, CCSD/C-PCM, Gaussian charge scheme 
  Tiago L. C. Gouveia    : GS-ROHF, GS-ROCIS                             
  Yang Guo               : DLPNO-NEVPT2, F12-NEVPT2, CIM, IAO-localization        
  Andreas Hansen         : Spin unrestricted coupled pair/coupled cluster methods 
  Ingolf Harden          : AUTO-CI MPn and infrastructure                
  Benjamin Helmich-Paris : MC-RPA, TRAH-(SCF,CASSCF), AVAS, COSX integrals, SCF dyn. polar. 
  Lee Huntington         : MR-EOM, pCC                                   
  Robert Izsak           : Overlap fitted RIJCOSX, COSX-SCS-MP3, EOM     
  Riya Kayal             : Wick's Theorem for AUTO-CI, AUTO-CI UHF-CCSDT 
  Emily Kempfer          : AUTO-CI, RHF CISDT and CCSDT                  
  Christian Kollmar      : KDIIS, OOCD, Brueckner-CCSD(T), CCSD density, CASPT2, CASPT2-K, improved NEVPT2 
  Axel Koslowski         : Symmetry handling                             
  Simone Kossmann        : meta-GGA functionals, TD-DFT gradient, OOMP2, (MP2 Hessian; deprecated post 5.0) 
  Lucas Lang             : DCDCAS                                        
  Marvin Lechner         : AUTO-CI (C++ implementation), FIC-MRCC        
  Spencer Leger          : CASSCF response                               
  Dagmar Lenk            : GEPOL surface, SMD, ORCA-2-JSON               
  Dimitrios Liakos       : Extrapolation schemes; Compound Job, initial MDCI parallelization 
  Dimitrios Manganas     : Further ROCIS development; embedding schemes. LFT, Crystal Embedding 
  Dimitrios Pantazis     : SARC Basis sets                               
  Anastasios Papadopoulos: AUTO-CI, single reference methods and gradients 
  Taras Petrenko         : pre 6.0 DFT Hessian and TD-DFT gradient, (ASA, deprecated), ECA, 1-Electron XAS/XES, NRVS 
  Peter Pinski           : DLPNO-MP2, DLPNO-MP2 Gradient                 
  Christoph Reimann      : Effective Core Potentials                     
  Marius Retegan         : Local ZFS, SOC                                
  Christoph Riplinger    : Optimizer, TS searches, QM/MM, DLPNO-CCSD(T), (RO)-DLPNO pert. Triples 
  Michael Roemelt        : Original ROCIS implementation                 
  Masaaki Saitow         : Open-shell DLPNO-CCSD energy and density      
  Barbara Sandhoefer     : DKH picture change effects                    
  Kantharuban Sivalingam : CASSCF convergence/infrastructure, NEVPT2 and variants, FIC-MRCI 
  Bernardo de Souza      : ESD, SOC TD-DFT                               
  Georgi L. Stoychev     : AutoAux, RI-MP2 NMR, DLPNO-MP2 response, X2C  
  Van Anh Tran           : RI-MP2 g-tensors                              
  Willem Van den Heuvel  : Paramagnetic NMR                              
  Zikuan Wang            : NOTCH, Electric field optimization            
  Frank Wennmohs         : Technical directorship and infrastructure     
  Hang Xu                : AUTO-CI-Response properties                   
                                                                         
[FACCTs GmbH]                                                            
  Markus Bursch, Miquel Garcia-Rates, Christoph Riplinger, Bernardo de Souza, Georgi L. Stoychev 
                                                                 
  APM, Basis sets (HGBS, AHGBS, def-TZVP (Ac-Lr), def2-XVPD (La-Lu)), CI-OPT, improved COSX, DLPNO-Multilevel,           
  DOCKER, DRACO, updates on ESD, GOAT, IRC, LR-CPCM, MBIS, meta-GGA TD-DFT gradient, ML-optimized integration grids, 
  MM, NACMEs, nearIR, NEB, NEB-TS, NL-DFT gradient (VV10), 2- and 3-layer-ONIOM, interface openCOSMO-RS, QMMM,   
  Crystal-QMMM, SF, symmetry and pop. for TD-DFT, r2SCAN hybrids, SOLVATOR                                   
                                                                         
[Other institutions]                                                     
  V. Asgeirsson          : NEB                                           
  Christoph Bannwarth    : sTDA-DFT, sTD-DFT, PBEh-3c, B97-3c, D3        
  Sebastian Ehlert       : rSCAN, r2SCAN, r2SCAN-3c, D4, dhf basis sets  
  Marvin Friede          : D4 for Fr, Ra, Ac-Lr                          
  Lars Goerigk           : TD-DFT with DH, B97 family of functionals     
  Stefan Grimme          : VdW corrections, initial TS optimization, DFT functionals, gCP, sTDA/sTD-DF 
  Waldemar Hujo          : DFT-NL                                        
  H. Jonsson             : NEB                                           
  Holger Kruse           : gCP                                           
  Marcel Mueller         : wB97X-3c, vDZP basis set                      
  Hagen Neugebauer       : wr2SCAN                                       
  Tobias Risthaus        : range-separated hybrid DFT                    
  Lukas Wittmann         : regularized MP2, r2SCAN double-hybrids, wr2SCAN        
                                                                         
We gratefully acknowledge several colleagues who have allowed us to      
interface, adapt or use parts of their codes:                            
  Ed Valeev, F. Pavosevic, A. Kumar             : LibInt (2-el integral package), F12 methods 
  Garnet Chan, S. Sharma, J. Yang, R. Olivares  : DMRG                   
  Ulf Ekstrom                                   : XCFun DFT Library      
  Mihaly Kallay                                 : mrcc  (arbitrary order and MRCC methods)
  Frank Weinhold                                : gennbo (NPA and NBO analysis)           
  Simon Mueller                                 : openCOSMO-RS                            
  Christopher J. Cramer and Donald G. Truhlar   : smd solvation model                     
  S Lehtola, MJT Oliveira, MAL Marques          : LibXC Library                           
  Liviu Ungur et al                             : ANISO software                          


 Your calculation uses the libint2 library for the computation of 2-el integrals
 For citations please refer to: http://libint.valeyev.net

 Your ORCA version has been built with support for libXC version: 6.2.2
 For citations please refer to: https://libxc.gitlab.io

 This ORCA versions uses:
   CBLAS   interface :  Fast vector & matrix operations
   LAPACKE interface :  Fast linear algebra routines
   SCALAPACK package :  Parallel linear algebra routines
   Shared memory     :  Shared parallel matrices
   BLAS/LAPACK       :  OpenBLAS 0.3.27  USE64BITINT DYNAMIC_ARCH NO_AFFINITY SapphireRapids SINGLE_THREADED
        Core in use  :  SapphireRapids
   Copyright (c) 2011-2014, The OpenBLAS Project




***************************************
The coordinates will be read from file: /scratch/kx58/rs2200/dhdft/inputs/compas3x-xyzs/hc_c24h14_0pent_14.xyz
***************************************


Your calculation utilizes the atom-pairwise dispersion correction
based on EEQ partial charges (D4)


================================================================================

----- Orbital basis set information -----
Your calculation utilizes the basis: def2-SVP
   F. Weigend and R. Ahlrichs, Phys. Chem. Chem. Phys. 7, 3297 (2005).

================================================================================
                                        WARNINGS
                       Please study these warnings very carefully!
================================================================================


WARNING: No MP2 level density has been requested!
         To calculate MP2 level properties use
         %mp2 Density relaxed end
         or
         %mp2 Density unrelaxed end
         Otherwise for double-hybrid DFT only the energy is correct!

================================================================================
                                       INPUT FILE
================================================================================
NAME = hc_c24h14_0pent_14_dz_nori.inp
|  1> ! RKS revDSD-PBEP86-D4/2021 defgrid3  NORI NOPOP NoFrozencore NoUseSym
|  2> 
|  3> %basis
|  4>   Basis "def2-SVP"
|  5>   
|  6>   
|  7> end
|  8> 
|  9> %method
| 10>   ScalHFX 0.69
| 11>   ScalDFX 0.31
| 12>   ScalDFC 0.4038
| 13>   ScalLDAC 0.4038
| 14> 
| 15>   D4S6 0.4612
| 16>   D4S8 0.0
| 17>   D4A1 0.44
| 18>   D4A2 3.60
| 19> end
| 20> 
| 21> %mp2
| 22>   PS 0.5979
| 23>   PT 0.0571
| 24> end
| 25> 
| 26> %pal
| 27>     nprocs 104
| 28> end
| 29> 
| 30> *XYZFILE 0 1 /scratch/kx58/rs2200/dhdft/inputs/compas3x-xyzs/hc_c24h14_0pent_14.xyz
| 31> 
| 32>                          ****END OF INPUT****
================================================================================

                       ****************************
                       * Single Point Calculation *
                       ****************************

---------------------------------
CARTESIAN COORDINATES (ANGSTROEM)
---------------------------------
  C      0.750579    0.058559    0.022760
  C     -0.537246   -0.573746    0.053945
  C     -1.718945    0.208372    0.052018
  C     -1.627561    1.659711   -0.069754
  C     -0.353138    2.281672    0.000692
  C      0.836246    1.512863    0.095792
  C      1.868960   -0.724259   -0.079469
  C      1.815027   -2.136483   -0.100155
  C      0.568010   -2.792163    0.009653
  C     -0.628013   -1.988972    0.086613
  C     -1.895634   -2.578955    0.186205
  C     -3.031700   -1.810156    0.245925
  C     -2.946260   -0.428965    0.169493
  C     -2.744672    2.457462   -0.246344
  C     -2.650975    3.848126   -0.308793
  C     -1.438051    4.465258   -0.179790
  C     -0.266157    3.699436   -0.023396
  C      0.990405    4.321364    0.109436
  C      2.119729    3.566021    0.263980
  C      2.042813    2.173518    0.250768
  C      2.997004   -2.891672   -0.208595
  C      2.958980   -4.260493   -0.202166
  C      1.730987   -4.913987   -0.083983
  C      0.564829   -4.195807    0.019571
  H      2.849591   -0.279867   -0.150575
  H     -1.993846   -3.651427    0.223980
  H     -3.999232   -2.281011    0.342590
  H     -3.859672    0.141461    0.212998
  H     -3.723722    2.017273   -0.346452
  H     -3.549718    4.431252   -0.448657
  H     -1.357589    5.542403   -0.202367
  H      1.041909    5.400422    0.094530
  H      3.082673    4.040218    0.387256
  H      2.959475    1.618755    0.371416
  H      3.939463   -2.369407   -0.295325
  H      3.869284   -4.835809   -0.285487
  H      1.699348   -5.993789   -0.075762
  H     -0.363178   -4.738179    0.106452

----------------------------
CARTESIAN COORDINATES (A.U.)
----------------------------
  NO LB      ZA    FRAG     MASS         X           Y           Z
   0 C     6.0000    0    12.011    1.418389    0.110660    0.043010
   1 C     6.0000    0    12.011   -1.015248   -1.084222    0.101941
   2 C     6.0000    0    12.011   -3.248336    0.393766    0.098299
   3 C     6.0000    0    12.011   -3.075644    3.136399   -0.131816
   4 C     6.0000    0    12.011   -0.667334    4.311734    0.001307
   5 C     6.0000    0    12.011    1.580276    2.858898    0.181020
   6 C     6.0000    0    12.011    3.531822   -1.368651   -0.150174
   7 C     6.0000    0    12.011    3.429904   -4.037368   -0.189266
   8 C     6.0000    0    12.011    1.073384   -5.276423    0.018241
   9 C     6.0000    0    12.011   -1.186772   -3.758612    0.163674
  10 C     6.0000    0    12.011   -3.582228   -4.873518    0.351876
  11 C     6.0000    0    12.011   -5.729083   -3.420700    0.464730
  12 C     6.0000    0    12.011   -5.567625   -0.810626    0.320296
  13 C     6.0000    0    12.011   -5.186678    4.643930   -0.465523
  14 C     6.0000    0    12.011   -5.009618    7.271905   -0.583535
  15 C     6.0000    0    12.011   -2.717523    8.438115   -0.339753
  16 C     6.0000    0    12.011   -0.502963    6.990920   -0.044212
  17 C     6.0000    0    12.011    1.871595    8.166194    0.206803
  18 C     6.0000    0    12.011    4.005707    6.738802    0.498850
  19 C     6.0000    0    12.011    3.860358    4.107353    0.473882
  20 C     6.0000    0    12.011    5.663518   -5.464469   -0.394187
  21 C     6.0000    0    12.011    5.591661   -8.051165   -0.382039
  22 C     6.0000    0    12.011    3.271091   -9.286089   -0.158706
  23 C     6.0000    0    12.011    1.067372   -7.928927    0.036984
  24 H     1.0000    0     1.008    5.384946   -0.528871   -0.284546
  25 H     1.0000    0     1.008   -3.767823   -6.900196    0.423261
  26 H     1.0000    0     1.008   -7.557454   -4.310486    0.647402
  27 H     1.0000    0     1.008   -7.293724    0.267323    0.402509
  28 H     1.0000    0     1.008   -7.036815    3.812094   -0.654699
  29 H     1.0000    0     1.008   -6.707995    8.373853   -0.847839
  30 H     1.0000    0     1.008   -2.565472   10.473624   -0.382418
  31 H     1.0000    0     1.008    1.968922   10.205319    0.178636
  32 H     1.0000    0     1.008    5.825408    7.634906    0.731807
  33 H     1.0000    0     1.008    5.592597    3.059004    0.701874
  34 H     1.0000    0     1.008    7.444506   -4.477530   -0.558084
  35 H     1.0000    0     1.008    7.311888   -9.138354   -0.539493
  36 H     1.0000    0     1.008    3.211302  -11.326621   -0.143169
  37 H     1.0000    0     1.008   -0.686308   -8.953861    0.201165

--------------------------------
INTERNAL COORDINATES (ANGSTROEM)
--------------------------------
 C      0   0   0     0.000000000000     0.00000000     0.00000000
 C      1   0   0     1.435017570554     0.00000000     0.00000000
 C      2   1   0     1.417083003652   120.34073295     0.00000000
 C      3   2   1     1.459302509607   119.78867125     3.98422762
 C      4   3   2     1.419841786323   119.19128592   351.38382791
 C      5   4   3     1.419416804772   121.21012686     4.32103317
 C      1   2   3     1.368952196375   118.86979582   185.02343273
 C      7   1   2     1.413404864760   122.77076008   357.29793477
 C      8   7   1     1.413161107488   119.74412476   358.93754646
 C      2   1   3     1.418509839348   119.83667693   179.98795500
 C     10   2   1     1.401735119667   118.64765148   176.75681924
 C     11  10   2     1.373049589240   121.04176634     0.26246807
 C     12  11  10     1.385940774269   120.30449647     1.87176013
 C      4   3   2     1.384025837439   122.23241532   171.68603250
 C     14   4   3     1.395215708886   121.73728911   177.42991695
 C     15  14   4     1.366996089371   120.35397876   359.23469210
 C     16  15  14     1.408644775864   120.21239935     1.94249323
 C     17  16  15     1.408327709596   120.84164550   179.94264437
 C     18  17  16     1.367405688091   120.23893893   179.83564319
 C      6   5   4     1.384299811892   118.64360407   184.23082676
 C      8   7   1     1.406819293562   120.35966757   179.92132680
 C     21   8   7     1.369363917900   120.85726255   178.65793128
 C     22  21   8     1.396061126543   119.52051343   359.88323573
 C     23  22  21     1.373473456471   120.56123702     0.28590502
 H      7   1   2     1.078971050687   120.79059526   177.20879970
 H     11  10   2     1.077621503774   120.25122895   180.67296304
 H     12  11  10     1.080354710443   120.05670912   181.23361139
 H     13  12  11     1.077775844364   118.22766631   179.58605691
 H     14   4   3     1.078112900437   120.62973362   357.07880984
 H     15  14   4     1.080433397251   119.20174442   179.94560302
 H     16  15  14     1.080382127951   120.94452331   181.51410756
 H     18  17  16     1.080389803423   118.83544633     0.30667852
 H     19  18  17     1.080426641606   120.43327710   181.30775210
 H     20   6   5     1.078232854051   120.52916080   177.19024403
 H     21   8   7     1.080976927637   118.64269145   358.78469530
 H     22  21   8     1.080085688668   120.57597136   180.01272233
 H     23  22  21     1.080297442767   119.62291764   180.18183768
 H     24  23  22     1.078384448581   118.27771583   179.83504705

---------------------------
INTERNAL COORDINATES (A.U.)
---------------------------
 C      0   0   0     0.000000000000     0.00000000     0.00000000
 C      1   0   0     2.711790205712     0.00000000     0.00000000
 C      2   1   0     2.677898785938   120.34073295     0.00000000
 C      3   2   1     2.757682089702   119.78867125     3.98422762
 C      4   3   2     2.683112129647   119.19128592   351.38382791
 C      5   4   3     2.682309030905   121.21012686     4.32103317
 C      1   2   3     2.586944741579   118.86979582   185.02343273
 C      7   1   2     2.670948110749   122.77076008   357.29793477
 C      8   7   1     2.670487476262   119.74412476   358.93754646
 C      2   1   3     2.680595114641   119.83667693   179.98795500
 C     10   2   1     2.648895488470   118.64765148   176.75681924
 C     11  10   2     2.594687691957   121.04176634     0.26246807
 C     12  11  10     2.619048501204   120.30449647     1.87176013
 C      4   3   2     2.615429795031   122.23241532   171.68603250
 C     14   4   3     2.636575587540   121.73728911   177.42991695
 C     15  14   4     2.583248235053   120.35397876   359.23469210
 C     16  15  14     2.661952846361   120.21239935     1.94249323
 C     17  16  15     2.661353677950   120.84164550   179.94264437
 C     18  17  16     2.584022264458   120.23893893   179.83564319
 C      6   5   4     2.615947531715   118.64360407   184.23082676
 C      8   7   1     2.658503184748   120.35966757   179.92132680
 C     21   8   7     2.587722782504   120.85726255   178.65793128
 C     22  21   8     2.638173195381   119.52051343   359.88323573
 C     23  22  21     2.595488684939   120.56123702     0.28590502
 H      7   1   2     2.038959792229   120.79059526   177.20879970
 H     11  10   2     2.036409518158   120.25122895   180.67296304
 H     12  11  10     2.041574530229   120.05670912   181.23361139
 H     13  12  11     2.036701179604   118.22766631   179.58605691
 H     14   4   3     2.037338123273   120.62973362   357.07880984
 H     15  14   4     2.041723226747   119.20174442   179.94560302
 H     16  15  14     2.041626341811   120.94452331   181.51410756
 H     18  17  16     2.041640846350   118.83544633     0.30667852
 H     19  18  17     2.041710460427   120.43327710   181.30775210
 H     20   6   5     2.037564802752   120.52916080   177.19024403
 H     21   8   7     2.042750350322   118.64269145   358.78469530
 H     22  21   8     2.041066152751   120.57597136   180.01272233
 H     23  22  21     2.041466310005   119.62291764   180.18183768
 H     24  23  22     2.037851274897   118.27771583   179.83504705

---------------------
BASIS SET INFORMATION
---------------------
There are 2 groups of distinct atoms

 Group   1 Type C   : 7s4p1d contracted to 3s2p1d pattern {511/31/1}
 Group   2 Type H   : 4s1p contracted to 2s1p pattern {31/1}

Atom   0C    basis set group =>   1
Atom   1C    basis set group =>   1
Atom   2C    basis set group =>   1
Atom   3C    basis set group =>   1
Atom   4C    basis set group =>   1
Atom   5C    basis set group =>   1
Atom   6C    basis set group =>   1
Atom   7C    basis set group =>   1
Atom   8C    basis set group =>   1
Atom   9C    basis set group =>   1
Atom  10C    basis set group =>   1
Atom  11C    basis set group =>   1
Atom  12C    basis set group =>   1
Atom  13C    basis set group =>   1
Atom  14C    basis set group =>   1
Atom  15C    basis set group =>   1
Atom  16C    basis set group =>   1
Atom  17C    basis set group =>   1
Atom  18C    basis set group =>   1
Atom  19C    basis set group =>   1
Atom  20C    basis set group =>   1
Atom  21C    basis set group =>   1
Atom  22C    basis set group =>   1
Atom  23C    basis set group =>   1
Atom  24H    basis set group =>   2
Atom  25H    basis set group =>   2
Atom  26H    basis set group =>   2
Atom  27H    basis set group =>   2
Atom  28H    basis set group =>   2
Atom  29H    basis set group =>   2
Atom  30H    basis set group =>   2
Atom  31H    basis set group =>   2
Atom  32H    basis set group =>   2
Atom  33H    basis set group =>   2
Atom  34H    basis set group =>   2
Atom  35H    basis set group =>   2
Atom  36H    basis set group =>   2
Atom  37H    basis set group =>   2


           ************************************************************
           *        Program running with 104 parallel MPI-processes   *
           *              working on a common directory               *
           ************************************************************
------------------------------------------------------------------------------
                             ORCA STARTUP CALCULATIONS
------------------------------------------------------------------------------
------------------------------------------------------------------------------
                   ___                                                        
                  /   \      - P O W E R E D   B Y -                         
                 /     \                                                     
                 |  |  |   _    _      __       _____    __    __             
                 |  |  |  | |  | |    /  \     |  _  \  |  |  /  |          
                  \  \/   | |  | |   /    \    | | | |  |  | /  /          
                 / \  \   | |__| |  /  /\  \   | |_| |  |  |/  /          
                |  |  |   |  __  | /  /__\  \  |    /   |      \           
                |  |  |   | |  | | |   __   |  |    \   |  |\   \          
                \     /   | |  | | |  |  |  |  | |\  \  |  | \   \       
                 \___/    |_|  |_| |__|  |__|  |_| \__\ |__|  \__/        
                                                                              
                      - O R C A' S   B I G   F R I E N D -                    
                                      &                                       
                       - I N T E G R A L  F E E D E R -                       
                                                                              
 v1 FN, 2020, v2 2021, v3 2022-2024                                           
------------------------------------------------------------------------------


----------------------
SHARK INTEGRAL PACKAGE
----------------------

Number of atoms                             ...     38
Number of basis functions                   ...    406
Number of shells                            ...    186
Maximum angular momentum                    ...      2
Integral batch strategy                     ... SHARK/LIBINT Hybrid
RI-J (if used) integral strategy            ... SPLIT-RIJ (Revised 2003 algorithm where possible)
Printlevel                                  ...      1
Contraction scheme used                     ... SEGMENTED contraction
Prescreening option                         ... SCHWARTZ
   Thresh                                   ... 1.000e-10
   Tcut                                     ... 1.000e-11
   Tpresel                                  ... 1.000e-11 
Coulomb Range Separation                    ... NOT USED
Exchange Range Separation                   ... NOT USED
Multipole approximations                    ... NOT USED
Finite Nucleus Model                        ... NOT USED
CABS basis                                  ... NOT available
Auxiliary Coulomb fitting basis             ... NOT available
Auxiliary J/K fitting basis                 ... NOT available
Auxiliary Correlation fitting basis         ... NOT available
Auxiliary 'external' fitting basis          ... NOT available

Checking pre-screening integrals            ... done (  0.0 sec) Dimension = 186
Check shell pair data                       ... done (  0.0 sec)
Shell pair information
Shell pair cut-off parameter TPreSel        ...   1.0e-11
Total number of shell pairs                 ...     17391
Shell pairs after pre-screening             ...     12751
Total number of primitive shell pairs       ...     64615
Primitive shell pairs kept                  ...     30261
          la=0 lb=0:   3709 shell pairs
          la=1 lb=0:   4656 shell pairs
          la=1 lb=1:   1530 shell pairs
          la=2 lb=0:   1624 shell pairs
          la=2 lb=1:   1056 shell pairs
          la=2 lb=2:    176 shell pairs

Calculating one electron integrals          ... done (  0.4 sec)
Calculating Nuclear repulsion               ... done (  0.0 sec) ENN=   1810.113847286342 Eh

Diagonalization of the overlap matrix:
Smallest eigenvalue                        ... 1.165e-04
Time for diagonalization                   ...    0.032 sec
Threshold for overlap eigenvalues          ... 1.000e-07
Number of eigenvalues below threshold      ... 0
Time for construction of square roots      ...    0.011 sec
Total time needed                          ...    0.063 sec

-------------------
DFT GRID GENERATION
-------------------

General Integration Accuracy     IntAcc      ... 4.959
Radial Grid Type                 RadialGrid  ... OptM3 with GC (2021)
Angular Grid (max. ang.)         AngularGrid ... 6 (Lebedev-590)
Angular grid pruning method      GridPruning ... 4 (adaptive)
Weight generation scheme         WeightScheme... mBecke (2022)
Basis function cutoff            BFCut       ... 1.0000e-10
Integration weight cutoff        WCut        ... 1.0000e-14
Partially contracted basis set               ... off
Rotationally invariant grid construction     ... off
Angular grids for H and He will be reduced by one unit

Total number of grid points                  ...   457166
Total number of batches                      ...     7165
Average number of points per batch           ...       63
Average number of grid points per atom       ...    12031
Initializing property integral containers    ... done (  0.1 sec)

SHARK setup successfully completed in   8.3 seconds

Maximum memory used throughout the entire STARTUP-calculation: 86.2 MB


           ************************************************************
           *        Program running with 104 parallel MPI-processes   *
           *              working on a common directory               *
           ************************************************************
-------------------------------------------------------------------------------
                                 ORCA GUESS
                   Start orbitals & Density for SCF / CASSCF
-------------------------------------------------------------------------------

------------
SCF SETTINGS
------------
Hamiltonian:
 Density Functional     Method          .... DFT(GTOs)
 Exchange Functional    Exchange        .... PBE
   PBE kappa parameter   XKappa         ....  0.804000
   PBE mue parameter    XMuePBE         ....  0.219520
 Correlation Functional Correlation     .... P86
 LDA part of GGA corr.  LDAOpt          .... VWN-5
 Gradients option       PostSCFGGA      .... off
 Hybrid DFT is turned on
   Fraction HF Exchange ScalHFX         ....  0.690000
   Scaling of DF-GGA-X  ScalDFX         ....  0.310000
   Scaling of DF-GGA-C  ScalDFC         ....  0.403800
   Scaling of DF-LDA-C  ScalLDAC        ....  0.403800
   Perturbative correction              ....  1.000000


General Settings:
 Integral files         IntName         .... hc_c24h14_0pent_14_dz_nori
 Hartree-Fock type      HFTyp           .... RHF
 Total Charge           Charge          ....    0
 Multiplicity           Mult            ....    1
 Number of Electrons    NEL             ....  158
 Basis Dimension        Dim             ....  406
 Nuclear Repulsion      ENuc            ....   1810.1138472863 Eh

Convergence Acceleration:
 AO-DIIS                CNVDIIS         .... on
   Start iteration      DIISMaxIt       ....    12
   Startup error        DIISStart       ....  0.200000
   # of expansion vecs  DIISMaxEq       ....     5
   Bias factor          DIISBfac        ....   1.050
   Max. coefficient     DIISMaxC        ....  10.000
 MO-DIIS                CNVKDIIS        .... off
 Trust-Rad. Augm. Hess. CNVTRAH         .... auto
   Auto Start mean grad. ratio tolernc. ....  1.125000
   Auto Start start iteration           ....    50
   Auto Start num. interpolation iter.  ....    10
   Max. Number of Micro iterations      ....    24
   Max. Number of Macro iterations      .... Maxiter - #DIIS iter
   Number of Davidson start vectors     ....     2
   Converg. threshold    (grad. norm)   ....   5.000e-05
   Grad. Scal. Fac. for Micro threshold ....   0.100
   Minimum threshold for Micro iter.    ....   1.000e-02
   NR start threshold (gradient norm)   ....   1.000e-04
   Initial trust radius                 ....   0.400
   Minimum AH scaling param. (alpha)    ....   1.000
   Maximum AH scaling param. (alpha)    .... 1000.000
   Quad. conv. algorithm                .... NR
   White noise on init. David. guess    .... on
   Maximum white noise                  ....   0.010
   Pseudo random numbers                .... off
   Inactive MOs                         .... canonical
   Orbital update algorithm             .... Taylor
   Preconditioner                       .... Diag
   Full preconditioner red. dimension   ....   250
 SOSCF                  CNVSOSCF        .... on
   Start iteration      SOSCFMaxIt      ....   150
   Startup grad/error   SOSCFStart      ....  0.003300
   Hessian update       SOSCFHessUp     .... L-BFGS
 Level Shifting         CNVShift        .... on
   Level shift para.    LevelShift      ....    0.2500
   Turn off err/grad.   ShiftErr        ....    0.0010
 Zerner damping         CNVZerner       .... off
 Static damping         CNVDamp         .... on
   Fraction old density DampFac         ....    0.7000
   Max. Damping (<1)    DampMax         ....    0.9800
   Min. Damping (>=0)   DampMin         ....    0.0000
   Turn off err/grad.   DampErr         ....    0.1000

SCF Procedure:
 Maximum # iterations   MaxIter         ....   125
 SCF integral mode      SCFMode         .... Direct
   Integral package                     .... SHARK and LIBINT hybrid scheme
 Reset frequency        DirectResetFreq ....    20
 Integral Threshold     Thresh          ....  1.000e-10 Eh
 Primitive CutOff       TCut            ....  1.000e-11 Eh

Convergence Tolerance:
 Convergence Check Mode ConvCheckMode   .... Total+1el-Energy
 Convergence forced     ConvForced      .... 0
 Energy Change          TolE            ....  1.000e-06 Eh
 1-El. energy change                    ....  1.000e-03 Eh
 Orbital Gradient       TolG            ....  5.000e-05
 Orbital Rotation angle TolX            ....  5.000e-05
 DIIS Error             TolErr          ....  1.000e-06

------------------------------
INITIAL GUESS: MODEL POTENTIAL
------------------------------
Loading Hartree-Fock densities                     ... done
Calculating cut-offs                               ... done
Initializing the effective Hamiltonian             ... done
Setting up the integral package (SHARK)            ... done
Starting the Coulomb interaction                   ... done (   0.1 sec)
Making the grid                                    ... done (   0.3 sec)
Mapping shells                                     ... done
Starting the XC term evaluation                    ... done (   0.0 sec)
  promolecular density results
     # of electrons  =    157.986064203
     EX              =   -127.048994112
     EC              =      0.198787956
     EX+EC           =   -126.850206156
Transforming the Hamiltonian                       ... done (   0.0 sec)
Diagonalizing the Hamiltonian                      ... done (   0.0 sec)
Back transforming the eigenvectors                 ... done (   0.0 sec)
Now organizing SCF variables                       ... done
                      ------------------
                      INITIAL GUESS DONE (   0.6 sec)
                      ------------------
             **** ENERGY FILE WAS UPDATED (hc_c24h14_0pent_14_dz_nori.en.tmp) ****
Finished Guess after  15.0 sec
Maximum memory used throughout the entire GUESS-calculation: 27.7 MB


           ************************************************************
           *        Program running with 104 parallel MPI-processes   *
           *              working on a common directory               *
           ************************************************************

-------------------------------------------------------------------------------------------
                                      ORCA LEAN-SCF
                              memory conserving SCF solver
-------------------------------------------------------------------------------------------

----------------------------------------D-I-I-S--------------------------------------------
Iteration    Energy (Eh)           Delta-E    RMSDP     MaxDP     DIISErr   Damp  Time(sec)
-------------------------------------------------------------------------------------------
               ***  Starting incremental Fock matrix formation  ***
    1    -918.1398761057359934     0.00e+00  4.10e-03  1.14e-01  1.19e-01  0.700   1.3
    2    -918.2873745909253103    -1.47e-01  3.11e-03  8.62e-02  7.52e-02  0.700   1.6
                               ***Turning on AO-DIIS***
    3    -918.3759143197046342    -8.85e-02  2.08e-03  6.00e-02  4.56e-02  0.700   1.5
    4    -918.4315409976018145    -5.56e-02  4.87e-03  1.43e-01  3.11e-02  0.000   1.4
                              *** Initializing SOSCF ***
---------------------------------------S-O-S-C-F--------------------------------------
Iteration    Energy (Eh)           Delta-E    RMSDP     MaxDP     MaxGrad    Time(sec)
--------------------------------------------------------------------------------------
    5    -918.5526385788300558    -1.21e-01  1.94e-04  5.12e-03  2.81e-03     1.5
               *** Restarting incremental Fock matrix formation ***
    6    -918.5529070746385969    -2.68e-04  1.04e-04  2.98e-03  1.38e-03     1.3
    7    -918.5529869538925141    -7.99e-05  8.42e-05  1.93e-03  7.15e-04     1.6
    8    -918.5530121527233405    -2.52e-05  3.34e-05  6.94e-04  3.46e-04     1.3
    9    -918.5530178922983850    -5.74e-06  1.05e-05  3.93e-04  5.32e-05     1.7
   10    -918.5530181554133833    -2.63e-07  3.75e-06  1.14e-04  3.77e-05     1.2
                 **** Energy Check signals convergence ****

               *****************************************************
               *                     SUCCESS                       *
               *           SCF CONVERGED AFTER  10 CYCLES          *
               *****************************************************

             **** ENERGY FILE WAS UPDATED (hc_c24h14_0pent_14_dz_nori.en.tmp) ****

----------------
TOTAL SCF ENERGY
----------------

Total Energy       :       -918.55301815541338 Eh          -24995.09835 eV

Components:
Nuclear Repulsion  :       1810.11384728634152 Eh           49255.70190 eV
Electronic Energy  :      -2728.66686544175491 Eh          -74250.80025 eV
One Electron Energy:      -4838.74480616173696 Eh         -131668.94010 eV
Two Electron Energy:       2110.07794071998205 Eh           57418.13985 eV

Virial components:
Potential Energy   :      -1831.00016907341637 Eh          -49824.04761 eV
Kinetic Energy     :        912.44715091800299 Eh           24828.94926 eV
Virial Ratio       :          2.00669174892076

DFT components:
N(Alpha)           :       78.999998070149 electrons
N(Beta)            :       78.999998070149 electrons
N(Total)           :      157.999996140298 electrons
E(X)               :      -39.974647333659 Eh       
E(C)               :       -2.358562502021 Eh       
E(XC)              :      -42.333209835680 Eh       

---------------
SCF CONVERGENCE
---------------

  Last Energy change         ...    2.6311e-07  Tolerance :   1.0000e-06
  Last MAX-Density change    ...    1.1364e-04  Tolerance :   1.0000e-05
  Last RMS-Density change    ...    3.7520e-06  Tolerance :   1.0000e-06
  Last DIIS Error            ...    2.8074e-03  Tolerance :   1.0000e-06
  Last Orbital Gradient      ...    3.7706e-05  Tolerance :   5.0000e-05
  Last Orbital Rotation      ...    8.8368e-05  Tolerance :   5.0000e-05


----------------
ORBITAL ENERGIES
----------------

  NO   OCC          E(Eh)            E(eV) 
   0   2.0000     -10.839724      -294.9639 
   1   2.0000     -10.839359      -294.9539 
   2   2.0000     -10.839253      -294.9511 
   3   2.0000     -10.838775      -294.9381 
   4   2.0000     -10.838539      -294.9316 
   5   2.0000     -10.838245      -294.9236 
   6   2.0000     -10.836808      -294.8845 
   7   2.0000     -10.835628      -294.8524 
   8   2.0000     -10.834098      -294.8108 
   9   2.0000     -10.833557      -294.7961 
  10   2.0000     -10.828813      -294.6670 
  11   2.0000     -10.828489      -294.6582 
  12   2.0000     -10.828383      -294.6553 
  13   2.0000     -10.828264      -294.6520 
  14   2.0000     -10.828254      -294.6518 
  15   2.0000     -10.828208      -294.6505 
  16   2.0000     -10.827761      -294.6384 
  17   2.0000     -10.827541      -294.6324 
  18   2.0000     -10.827421      -294.6291 
  19   2.0000     -10.827339      -294.6269 
  20   2.0000     -10.827118      -294.6209 
  21   2.0000     -10.826884      -294.6145 
  22   2.0000     -10.826797      -294.6121 
  23   2.0000     -10.826673      -294.6087 
  24   2.0000      -1.088679       -29.6245 
  25   2.0000      -1.063203       -28.9312 
  26   2.0000      -1.036371       -28.2011 
  27   2.0000      -1.013948       -27.5909 
  28   2.0000      -0.991025       -26.9672 
  29   2.0000      -0.970588       -26.4111 
  30   2.0000      -0.938368       -25.5343 
  31   2.0000      -0.916083       -24.9279 
  32   2.0000      -0.912721       -24.8364 
  33   2.0000      -0.904583       -24.6149 
  34   2.0000      -0.883692       -24.0465 
  35   2.0000      -0.851255       -23.1638 
  36   2.0000      -0.790914       -21.5219 
  37   2.0000      -0.787099       -21.4180 
  38   2.0000      -0.774985       -21.0884 
  39   2.0000      -0.758557       -20.6414 
  40   2.0000      -0.739215       -20.1151 
  41   2.0000      -0.728122       -19.8132 
  42   2.0000      -0.690495       -18.7893 
  43   2.0000      -0.665583       -18.1114 
  44   2.0000      -0.663028       -18.0419 
  45   2.0000      -0.636723       -17.3261 
  46   2.0000      -0.626128       -17.0378 
  47   2.0000      -0.617568       -16.8049 
  48   2.0000      -0.601058       -16.3556 
  49   2.0000      -0.592549       -16.1241 
  50   2.0000      -0.583949       -15.8901 
  51   2.0000      -0.563119       -15.3233 
  52   2.0000      -0.550764       -14.9871 
  53   2.0000      -0.543792       -14.7973 
  54   2.0000      -0.538182       -14.6447 
  55   2.0000      -0.534844       -14.5538 
  56   2.0000      -0.530145       -14.4260 
  57   2.0000      -0.522050       -14.2057 
  58   2.0000      -0.515049       -14.0152 
  59   2.0000      -0.512101       -13.9350 
  60   2.0000      -0.492445       -13.4001 
  61   2.0000      -0.489007       -13.3066 
  62   2.0000      -0.477512       -12.9938 
  63   2.0000      -0.472821       -12.8661 
  64   2.0000      -0.467874       -12.7315 
  65   2.0000      -0.455399       -12.3920 
  66   2.0000      -0.451670       -12.2906 
  67   2.0000      -0.438230       -11.9248 
  68   2.0000      -0.428228       -11.6527 
  69   2.0000      -0.417400       -11.3580 
  70   2.0000      -0.411969       -11.2103 
  71   2.0000      -0.401119       -10.9150 
  72   2.0000      -0.374613       -10.1937 
  73   2.0000      -0.343040        -9.3346 
  74   2.0000      -0.312541        -8.5047 
  75   2.0000      -0.305246        -8.3062 
  76   2.0000      -0.302679        -8.2363 
  77   2.0000      -0.274881        -7.4799 
  78   2.0000      -0.225533        -6.1371 
  79   0.0000      -0.011293        -0.3073 
  80   0.0000       0.029959         0.8152 
  81   0.0000       0.058498         1.5918 
  82   0.0000       0.067011         1.8235 
  83   0.0000       0.074098         2.0163 
  84   0.0000       0.101938         2.7739 
  85   0.0000       0.134987         3.6732 
  86   0.0000       0.142893         3.8883 
  87   0.0000       0.144669         3.9366 
  88   0.0000       0.146579         3.9886 
  89   0.0000       0.159829         4.3492 
*Only the first 10 virtual orbitals were printed.
-------
TIMINGS
-------

Total SCF time: 0 days 0 hours 0 min 29 sec 

Total time                  ....      29.005 sec
Sum of individual times     ....      28.927 sec  ( 99.7%)

SCF preparation             ....      14.403 sec  ( 49.7%)
Fock matrix formation       ....      10.111 sec  ( 34.9%)
  Startup                   ....       0.782 sec  (  7.7% of F)
  Coulomb+Exchange Fock     ....       3.304 sec  ( 32.7% of F)
  XC integration            ....       4.610 sec  ( 45.6% of F)
    XC Preparation          ....       0.000 sec  (  0.0% of XC)
    Basis function eval.    ....       0.271 sec  (  5.9% of XC)
    Density eval.           ....       0.148 sec  (  3.2% of XC)
    XC-Functional eval.     ....       0.040 sec  (  0.9% of XC)
    XC-Potential eval.      ....       0.137 sec  (  3.0% of XC)
Diagonalization             ....       0.000 sec  (  0.0%)
Density matrix formation    ....       1.165 sec  (  4.0%)
Total Energy calculation    ....       0.626 sec  (  2.2%)
Population analysis         ....       0.000 sec  (  0.0%)
Orbital Transformation      ....       0.302 sec  (  1.0%)
Orbital Orthonormalization  ....       0.000 sec  (  0.0%)
DIIS solution               ....       1.293 sec  (  4.5%)
SOSCF solution              ....       0.953 sec  (  3.3%)
Finished LeanSCF after  29.3 sec

Maximum memory used throughout the entire LEANSCF-calculation: 67.9 MB


           ************************************************************
           *        Program running with 104 parallel MPI-processes   *
           *              working on a common directory               *
           ************************************************************

------------------------------------------------------------------------------
                                ORCA  MP2 
------------------------------------------------------------------------------


----------
MP2 ENERGY (disk based algorithm)
----------

Dimension of the basis                      ...  406
Memory devoted to MP2                       ... 4096 MB   
Data format for buffers                     ... DOUBLE
Compression type for matrix containers      ... UNCOMPRESSED
Scaling for aa/bb pairs                     ...   5.710e-02
Scaling for ab pairs                        ...   5.979e-01
Overall scaling of the MP2 energy           ...   1.000e+00

-------------------------
SHARK HALF TRANSFORMATION (Exchange order)
-------------------------

Number of basis functions                   ...    406
Number of operators                         ...      1
   Operator  0:    0-  78 (p-index in (p*|q*))
   Operator  0:    0-  78 (q-index in (p*|q*)
Integral generator used                     ... SHARK
Contraction scheme used                     ... SEGMENTED CONTRACTION
MaxCore in resort                           ...   4096 MB

Half transformed integrals for op=   0      ... hc_c24h14_0pent_14_dz_nori.SHARK_MNPQ0.tmp
Resorted half transformed integrals         ... hc_c24h14_0pent_14_dz_nori.KAO_aa.tmp

Half trafo (segmented) done. Total time =  5.2 sec. integrals=  0.9 sec trafo=  0.3 sec

----------------------
SHARK INTEGRAL SORTING (Exchange)
----------------------

Input container                             ... hc_c24h14_0pent_14_dz_nori.SHARK_MNPQ0.tmp
Output container                            ... hc_c24h14_0pent_14_dz_nori.KAO_aa.tmp
Range of AO-indices                         ...    0 -  405
Range of bra indices i                      ...    0 -   78
Range of ket indices j                      ...    0 -   78
Symmetric i,j range                         ... YES
Number of (i,j) pairs generated             ... 3160
Max Core memory in MB                       ...   1024

Available core memory in MB                 ...   1002.80
MB needed for one item                      ...      1.26
Number of items                             ...        31
Number of batches                           ...         1
Items treated per batch                     ...        31
Batch   0                                   ...      0-    30 (    31)
   => Closing output file and leaving
done (  3.6 sec)

SHARK half integral transformation done. Total time =  9.0 sec.


Finished integral transformation - now doing MP2 part

OPERATOR COMBINATION   0   0: ij=(  0.. 78,  0.. 78)
Process 17:   Internal MO  17
Process 23:   Internal MO  23
Process 26:   Internal MO  26
Process 32:   Internal MO  32
Process 35:   Internal MO  35
Process 44:   Internal MO  44
Process 50:   Internal MO  50
Process 53:   Internal MO  53
Process 56:   Internal MO  56
Process 65:   Internal MO  65
Process 74:   Internal MO  74
Process 77:   Internal MO  77
Process  8:   Internal MO   8
Process 11:   Internal MO  11
Process 14:   Internal MO  14
Process 20:   Internal MO  20
Process 29:   Internal MO  29
Process 38:   Internal MO  38
Process 41:   Internal MO  41
Process 47:   Internal MO  47
Process 59:   Internal MO  59
Process 62:   Internal MO  62
Process  5:   Internal MO   5
Process 68:   Internal MO  68
Process 71:   Internal MO  71
Process  2:   Internal MO   2
-----------------------------------------------
 MP2 CORRELATION ENERGY   :     -1.607759223 Eh
-----------------------------------------------


-------
TIMINGS
-------
Total time                :   10.240 sec
Integral trafo            :    8.975 sec ( 87.7%)
K(i,j)                    :    0.005 sec (  0.1%)
T(i,j)                    :    0.000 sec (  0.0%)

---------------------------------------
MP2 TOTAL ENERGY:     -920.160777379 Eh
---------------------------------------

Maximum memory used throughout the entire MP2-calculation: 311.8 MB


-------------------------------------------------------------------------------
                          DFT DISPERSION CORRECTION                            
                                                                               
                                DFTD4 V3.4.0                                   
-------------------------------------------------------------------------------
The REV-DSD-PBEP86-2021 functional is recognized
A user input s6-coefficient scaling factor has been recognized
A user input a1-coefficient scaling factor has been recognized
A user input s8-coefficient scaling factor has been recognized
A user input a2-coefficient scaling factor has been recognized
A user input s9-coefficient scaling factor has been recognized
Active option DFTDOPT                   ...         5   

-------------------------   ----------------
Dispersion correction           -0.038489184
-------------------------   ----------------


-------------------------   --------------------
FINAL SINGLE POINT ENERGY      -920.199266563107
-------------------------   --------------------



           ************************************************************
           *        Program running with 104 parallel MPI-processes   *
           *              working on a common directory               *
           ************************************************************

------------------------------------------------------------------------------
                              ORCA PROPERTY CALCULATIONS
------------------------------------------------------------------------------

GBWName                                 ... hc_c24h14_0pent_14_dz_nori.gbw
Number of atoms                         ...     38
Number of basis functions               ...    406
Max core memory                         ...   1024 MB

Electric properties:
Dipole moment                           ... YES
Quadrupole moment                       ...  NO
Static polarizability (Dipole/Dipole)   ...  NO
Static polarizability (Dipole/Quad.)    ...  NO
Static polarizability (Quad./Quad.)     ...  NO
Static polarizability (Velocity)        ...  NO

Atomic electric properties:
Dipole moment                           ...  NO
Quadrupole moment                       ...  NO
Static polarizability                   ...  NO

Choice of electric origin               ... Center of mass
Position of electric origin             ...    -0.040900     0.065781     0.004422

General magnetic properties:
Magnetizability                         ...  NO

EPR properties:
g-Tensor (aka g-matrix)                 ...  NO
Zero-Field splitting spin-orbit         ...  NO
Zero-field splitting spin-spin          ...  NO
Hyperfine couplings                     ...  NO (   0 nuclei)
Quadrupole couplings                    ...  NO (   0 nuclei)
Contact density                         ...  NO (   0 nuclei)

NMR properties:
Chemical shifts                         ...  NO (   0 nuclei)
Spin-rotation constants                 ...  NO (   0 nuclei)
Spin-spin couplings                     ...  NO (   0 nuclei,    0 pairs)

Choice of magnetic origin               ... GIAO
Position of magnetic origin             ...     0.000000     0.000000     0.000000

Properties with geometric perturbations:
SCF Hessian                             ...  NO
IR spectrum                             ...  NO
VCD spectrum                            ...  NO
X-ray spectroscopy properties:
SCF XES/XAS/RIXS spectra                ...  NO


-------------
DIPOLE MOMENT
-------------

Method             : SCF
Type of density    : Electron Density
Multiplicity       :   1
Irrep              :   0
Energy             :  -918.5530181554133833 Eh
Relativity type    : 
Basis              : AO
                                X                 Y                 Z
Electronic contribution:     -0.849120881       1.332708969       0.092091758
Nuclear contribution   :      0.842283743      -1.355699878      -0.092096862
                        -----------------------------------------
Total Dipole Moment    :     -0.006837138      -0.022990909      -0.000005105
                        -----------------------------------------
Magnitude (a.u.)       :      0.023986004
Magnitude (Debye)      :      0.060967576



--------------------
Rotational spectrum 
--------------------
 
Rotational constants in cm-1:             0.016858             0.006208             0.004557 
Rotational constants in MHz :           505.404476           186.119554           136.629833 

Dipole components along the rotational axes: 
x,y,z [a.u.] :    -0.020108     0.013077    -0.000030 
x,y,z [Debye]:    -0.051110     0.033239    -0.000075 

 

Dipole moment calculation done in   0.1 sec 

Maximum memory used throughout the entire PROP-calculation: 21.9 MB

--------------------------------
SUGGESTED CITATIONS FOR THIS RUN
--------------------------------

Below you find a list of papers that are relevant to this ORCA run
We neither can nor want to force you to cite these papers, but we appreciate if you do
You receive ORCA, which is the product of decades of hard work by many enthusiastic individuals, for free
The only thing we kindly ask in return is that you cite our papers,
We deeply appreciate it, if you show your appreciation for ORCA by not just citing the generic ORCA reference.

Please note that relegating all ORCA citations to the supporting information does *not* help us.
SI sections are not indexed - citations you put there will not count into any citation statistics
But we need these citations in order to attract the funding resources that allow us to do what we are doing

Therefore, if you are a happy ORCA user, please consider citing a few of the papers listed below in the main body of your paper

In addition to the list printed below, the program has created the file hc_c24h14_0pent_14_dz_nori.bibtex that contains the list in bibtex format
You can import this file easily into all common literature databanks and citation aid programs


List of essential papers. We consider these as the minimum necessary citations

  1. Neese,F.
     Software update: the ORCA program system, version 5.0
     WIRES Comput. Molec. Sci., 2022 12(1)e1606
     doi.org/10.1002/wcms.1606

List of papers to cite with high priority. The work reported in these papers was absolutely
necessary for this run to complete.
Our perspective: the developers of density functionals and basis sets usually get cited in chemistry papers
Good! But without the algorithms to do something with them, the functionals or basis sets would not do anything.
Hence, in our opinion, the algorithm design and method developments papers are equally worthy of getting cited

  1. Neese,F.
     The SHARK Integral Generation and Digestion System
     J. Comp. Chem., 2022  1-16
     doi.org/10.1002/jcc.26942
  2. Caldeweyher,E.; Bannwarth,C.; Grimme,S.
     Extension of the D3 dispersion coefficient model
     J. Chem. Phys., 2017 147 034112
     doi.org/10.1063/1.4993215
  3. Caldeweyher,E.; Ehlert,S.; Hansen,A.; Neugebauer,H.; Spicher,S.; Bannwarth,C.; Grimme,S.
     A generally applicable atomic-charge dependent London dispersion correction
     J. Chem. Phys., 2019 150 154122
     doi.org/10.1063/1.5090222
  4. Caldeweyher,E.; Mewes,J.; Ehlert,S.; Grimme,S.
     Extension and evaluation of the D4 London-dispersion model for periodic systems
     Phys. Chem. Chem. Phys., 2020 22(16)8499-8512
     doi.org/10.1039/D0CP00502A
  5. Wittmann,L.; Gordiy,I.; Friede,M.; Helmich-Paris,B.; Grimme,S.; Hansen,A.; Bursch,M.
     Extension of the D3 and D4 London Dispersion Corrections to the full Actinides Series
     Phys. Chem. Chem. Phys., 2024 26(32)21379-21394
     doi.org/https://doi.org/10.1039/D4CP01514B 

List of suggested additional citations. These are papers that are important in the 'surrounding' of 
of this run, or papers that preceded the highly important papers. If you like your results we are grateful for a citation.

  1. Neese,F.
     The ORCA program system
     WIRES Comput. Molec. Sci., 2012 2(1)73-78
     doi.org/10.1002/wcms.81
  2. Neese,F.
     Software update: the ORCA program system, version 4.0
     WIRES Comput. Molec. Sci., 2018 8(1)1-6
     doi.org/10.1002/wcms.1327
  3. Neese,F.; Wennmohs,F.; Becker,U.; Riplinger,C.
     The ORCA quantum chemistry program package
     J. Chem. Phys., 2020 152 Art. No. L224108
     doi.org/10.1063/5.0004608

List of optional additional citations

  1. Neese,F.
     Approximate second-order SCF convergence for spin unrestricted wavefunctions
     Chem. Phys. Lett., 2000 325(1-3)93-98
     doi.org/10.1016/s0009-2614(00)00662-x

Timings for individual modules:

Sum of individual times          ...      112.206 sec (=   1.870 min)
Startup calculation              ...       23.455 sec (=   0.391 min)  20.9 %
SCF iterations                   ...       47.366 sec (=   0.789 min)  42.2 %
Property calculations            ...       15.563 sec (=   0.259 min)  13.9 %
MP2 module                       ...       25.823 sec (=   0.430 min)  23.0 %
                             ****ORCA TERMINATED NORMALLY****
TOTAL RUN TIME: 0 days 0 hours 2 minutes 25 seconds 443 msec
