
                                 *****************
                                 * O   R   C   A *
                                 *****************

                                            #,                                       
                                            ###                                      
                                            ####                                     
                                            #####                                    
                                            ######                                   
                                           ########,                                 
                                     ,,################,,,,,                         
                               ,,#################################,,                 
                          ,,##########################################,,             
                       ,#########################################, ''#####,          
                    ,#############################################,,   '####,        
                  ,##################################################,,,,####,       
                ,###########''''           ''''###############################       
              ,#####''   ,,,,##########,,,,          '''####'''          '####       
            ,##' ,,,,###########################,,,                        '##       
           ' ,,###''''                  '''############,,,                           
         ,,##''                                '''############,,,,        ,,,,,,###''
      ,#''                                            '''#######################'''  
     '                                                          ''''####''''         
             ,#######,   #######,   ,#######,      ##                                
            ,#'     '#,  ##    ##  ,#'     '#,    #''#        ,####,   ,####,        
            ##       ##  ##   ,#'  ##            #'  '#       #'       #'  '#        
            ##       ##  #######   ##           ,######,      #####,   #    #        
            '#,     ,#'  ##    ##  '#,     ,#' ,#      #,     #,   #   #,  ,#        
             '#######'   ##     ##  '#######'  #'      '#     '####' # '####'        



                #########################################################
                #                        -***-                          #
                #          Department of theory and spectroscopy        #
                #                                                       #
                #                      Frank Neese                      #
                #                                                       #
                #     Directorship, Architecture, Infrastructure        #
                #                    SHARK, DRIVERS                     #
                #        Core code/Algorithms in most modules           #
                #                                                       #
                #        Max Planck Institute fuer Kohlenforschung      #
                #                Kaiser Wilhelm Platz 1                 #
                #                 D-45470 Muelheim/Ruhr                 #
                #                      Germany                          #
                #                                                       #
                #                  All rights reserved                  #
                #                        -***-                          #
                #########################################################


                         Program Version 6.0.1  -  RELEASE   -


 With contributions from (in alphabetic order):
[Max-Planck-Institut fuer Kohlenforschung]                               
  Daniel Aravena         : Magnetic Suceptibility                        
  Michael Atanasov       : Ab Initio Ligand Field Theory (pilot matlab implementation)
  Alexander A. Auer      : GIAO ZORA, VPT2 properties, NMR spectrum      
  Ute Becker             : All parallelization in ORCA, NUMFREQ, NUMCALC 
  Giovanni Bistoni       : ED, misc. LED, open-shell LED, HFLD           
  Martin Brehm           : Molecular dynamics                            
  Dmytro Bykov           : pre 5.0 version of the SCF Hessian            
  Marcos Casanova-Páez   : Triplet and SCS-CIS(D). UHF-(DLPNO)-IP/EA/STEOM-CCSD. UHF-CVS-IP/STEOM-CCSD   
  Vijay G. Chilkuri      : MRCI spin determinant printing, contributions to CSF-ICE 
  Pauline Colinet        : FMM embedding                                 
  Dipayan Datta          : RHF DLPNO-CCSD density                        
  Achintya Kumar Dutta   : EOM-CC, STEOM-CC                              
  Nicolas Foglia         : Exact transition moments, OPA infrastructure, MCD improvements    
  Dmitry Ganyushin       : Spin-Orbit,Spin-Spin,Magnetic field MRCI      
  Miquel Garcia-Rates    : C-PCM and meta-GGA Hessian, CCSD/C-PCM, Gaussian charge scheme 
  Tiago L. C. Gouveia    : GS-ROHF, GS-ROCIS                             
  Yang Guo               : DLPNO-NEVPT2, F12-NEVPT2, CIM, IAO-localization        
  Andreas Hansen         : Spin unrestricted coupled pair/coupled cluster methods 
  Ingolf Harden          : AUTO-CI MPn and infrastructure                
  Benjamin Helmich-Paris : MC-RPA, TRAH-(SCF,CASSCF), AVAS, COSX integrals, SCF dyn. polar. 
  Lee Huntington         : MR-EOM, pCC                                   
  Robert Izsak           : Overlap fitted RIJCOSX, COSX-SCS-MP3, EOM     
  Riya Kayal             : Wick's Theorem for AUTO-CI, AUTO-CI UHF-CCSDT 
  Emily Kempfer          : AUTO-CI, RHF CISDT and CCSDT                  
  Christian Kollmar      : KDIIS, OOCD, Brueckner-CCSD(T), CCSD density, CASPT2, CASPT2-K, improved NEVPT2 
  Axel Koslowski         : Symmetry handling                             
  Simone Kossmann        : meta-GGA functionals, TD-DFT gradient, OOMP2, (MP2 Hessian; deprecated post 5.0) 
  Lucas Lang             : DCDCAS                                        
  Marvin Lechner         : AUTO-CI (C++ implementation), FIC-MRCC        
  Spencer Leger          : CASSCF response                               
  Dagmar Lenk            : GEPOL surface, SMD, ORCA-2-JSON               
  Dimitrios Liakos       : Extrapolation schemes; Compound Job, initial MDCI parallelization 
  Dimitrios Manganas     : Further ROCIS development; embedding schemes. LFT, Crystal Embedding 
  Dimitrios Pantazis     : SARC Basis sets                               
  Anastasios Papadopoulos: AUTO-CI, single reference methods and gradients 
  Taras Petrenko         : pre 6.0 DFT Hessian and TD-DFT gradient, (ASA, deprecated), ECA, 1-Electron XAS/XES, NRVS 
  Peter Pinski           : DLPNO-MP2, DLPNO-MP2 Gradient                 
  Christoph Reimann      : Effective Core Potentials                     
  Marius Retegan         : Local ZFS, SOC                                
  Christoph Riplinger    : Optimizer, TS searches, QM/MM, DLPNO-CCSD(T), (RO)-DLPNO pert. Triples 
  Michael Roemelt        : Original ROCIS implementation                 
  Masaaki Saitow         : Open-shell DLPNO-CCSD energy and density      
  Barbara Sandhoefer     : DKH picture change effects                    
  Kantharuban Sivalingam : CASSCF convergence/infrastructure, NEVPT2 and variants, FIC-MRCI 
  Bernardo de Souza      : ESD, SOC TD-DFT                               
  Georgi L. Stoychev     : AutoAux, RI-MP2 NMR, DLPNO-MP2 response, X2C  
  Van Anh Tran           : RI-MP2 g-tensors                              
  Willem Van den Heuvel  : Paramagnetic NMR                              
  Zikuan Wang            : NOTCH, Electric field optimization            
  Frank Wennmohs         : Technical directorship and infrastructure     
  Hang Xu                : AUTO-CI-Response properties                   
                                                                         
[FACCTs GmbH]                                                            
  Markus Bursch, Miquel Garcia-Rates, Christoph Riplinger, Bernardo de Souza, Georgi L. Stoychev 
                                                                 
  APM, Basis sets (HGBS, AHGBS, def-TZVP (Ac-Lr), def2-XVPD (La-Lu)), CI-OPT, improved COSX, DLPNO-Multilevel,           
  DOCKER, DRACO, updates on ESD, GOAT, IRC, LR-CPCM, MBIS, meta-GGA TD-DFT gradient, ML-optimized integration grids, 
  MM, NACMEs, nearIR, NEB, NEB-TS, NL-DFT gradient (VV10), 2- and 3-layer-ONIOM, interface openCOSMO-RS, QMMM,   
  Crystal-QMMM, SF, symmetry and pop. for TD-DFT, r2SCAN hybrids, SOLVATOR                                   
                                                                         
[Other institutions]                                                     
  V. Asgeirsson          : NEB                                           
  Christoph Bannwarth    : sTDA-DFT, sTD-DFT, PBEh-3c, B97-3c, D3        
  Sebastian Ehlert       : rSCAN, r2SCAN, r2SCAN-3c, D4, dhf basis sets  
  Marvin Friede          : D4 for Fr, Ra, Ac-Lr                          
  Lars Goerigk           : TD-DFT with DH, B97 family of functionals     
  Stefan Grimme          : VdW corrections, initial TS optimization, DFT functionals, gCP, sTDA/sTD-DF 
  Waldemar Hujo          : DFT-NL                                        
  H. Jonsson             : NEB                                           
  Holger Kruse           : gCP                                           
  Marcel Mueller         : wB97X-3c, vDZP basis set                      
  Hagen Neugebauer       : wr2SCAN                                       
  Tobias Risthaus        : range-separated hybrid DFT                    
  Lukas Wittmann         : regularized MP2, r2SCAN double-hybrids, wr2SCAN        
                                                                         
We gratefully acknowledge several colleagues who have allowed us to      
interface, adapt or use parts of their codes:                            
  Ed Valeev, F. Pavosevic, A. Kumar             : LibInt (2-el integral package), F12 methods 
  Garnet Chan, S. Sharma, J. Yang, R. Olivares  : DMRG                   
  Ulf Ekstrom                                   : XCFun DFT Library      
  Mihaly Kallay                                 : mrcc  (arbitrary order and MRCC methods)
  Frank Weinhold                                : gennbo (NPA and NBO analysis)           
  Simon Mueller                                 : openCOSMO-RS                            
  Christopher J. Cramer and Donald G. Truhlar   : smd solvation model                     
  S Lehtola, MJT Oliveira, MAL Marques          : LibXC Library                           
  Liviu Ungur et al                             : ANISO software                          


 Your calculation uses the libint2 library for the computation of 2-el integrals
 For citations please refer to: http://libint.valeyev.net

 Your ORCA version has been built with support for libXC version: 6.2.2
 For citations please refer to: https://libxc.gitlab.io

 This ORCA versions uses:
   CBLAS   interface :  Fast vector & matrix operations
   LAPACKE interface :  Fast linear algebra routines
   SCALAPACK package :  Parallel linear algebra routines
   Shared memory     :  Shared parallel matrices
   BLAS/LAPACK       :  OpenBLAS 0.3.27  USE64BITINT DYNAMIC_ARCH NO_AFFINITY SapphireRapids SINGLE_THREADED
        Core in use  :  SapphireRapids
   Copyright (c) 2011-2014, The OpenBLAS Project




***************************************
The coordinates will be read from file: /scratch/kx58/rs2200/dhdft/inputs/compas3x-xyzs/hc_c24h14_0pent_10.xyz
***************************************


Your calculation utilizes the atom-pairwise dispersion correction
based on EEQ partial charges (D4)


Warning: RI is on but no J-basis has been assigned. Assigning Def2/J (nothing to worry about!)
================================================================================

----- Orbital basis set information -----
Your calculation utilizes the basis: def2-SVP
   F. Weigend and R. Ahlrichs, Phys. Chem. Chem. Phys. 7, 3297 (2005).

----- AuxJ basis set information -----
Your calculation utilizes the auxiliary basis: def2/J
   F. Weigend, Phys. Chem. Chem. Phys. 8, 1057 (2006).

----- AuxC basis set information -----
Your calculation utilizes the auxiliary basis: def2-SVP/C
  H-La, Hf-Rn : A. Hellweg, C. Hattig, S. Hofener and W. Klopper, Theor. Chem. Acc. 117, 587 (2007).
        Ce-Lu : J. Chmela and M. E. Harding, Mol. Phys. (2018).

================================================================================
                                        WARNINGS
                       Please study these warnings very carefully!
================================================================================


WARNING: No MP2 level density has been requested!
         To calculate MP2 level properties use
         %mp2 Density relaxed end
         or
         %mp2 Density unrelaxed end
         Otherwise for double-hybrid DFT only the energy is correct!

================================================================================
                                       INPUT FILE
================================================================================
NAME = hc_c24h14_0pent_10_dz_ri.inp
|  1> ! RKS revDSD-PBEP86-D4/2021 defgrid3  NOPOP NoFrozencore NoUseSym
|  2> 
|  3> %basis
|  4>   Basis "def2-SVP"
|  5>   
|  6>   AuxC "def2-SVP/C"
|  7> end
|  8> 
|  9> %method
| 10>   ScalHFX 0.69
| 11>   ScalDFX 0.31
| 12>   ScalDFC 0.4038
| 13>   ScalLDAC 0.4038
| 14> 
| 15>   D4S6 0.4612
| 16>   D4S8 0.0
| 17>   D4A1 0.44
| 18>   D4A2 3.60
| 19> end
| 20> 
| 21> %mp2
| 22>   PS 0.5979
| 23>   PT 0.0571
| 24> end
| 25> 
| 26> %pal
| 27>     nprocs 104
| 28> end
| 29> 
| 30> *XYZFILE 0 1 /scratch/kx58/rs2200/dhdft/inputs/compas3x-xyzs/hc_c24h14_0pent_10.xyz
| 31> 
| 32>                          ****END OF INPUT****
================================================================================

                       ****************************
                       * Single Point Calculation *
                       ****************************

---------------------------------
CARTESIAN COORDINATES (ANGSTROEM)
---------------------------------
  C      1.435633   -0.682856    0.010195
  C      0.038310   -0.875084   -0.003854
  C     -0.843644    0.235423   -0.001360
  C     -0.339969    1.552882    0.015196
  C      1.062153    1.713590    0.031347
  C      1.909699    0.646408    0.028964
  C      2.315488   -1.817233    0.004723
  C      1.755023   -3.121548   -0.013814
  C      0.356235   -3.280639   -0.025663
  C     -0.496746   -2.202543   -0.021289
  C     -1.917634   -2.382149   -0.034254
  C     -2.754531   -1.328376   -0.031872
  C     -2.257816    0.014897   -0.016288
  C     -3.114767    1.089849   -0.015803
  C     -2.643040    2.416244   -0.001370
  C     -1.245655    2.666757    0.014747
  C      3.717724   -1.707629    0.015903
  C      4.522311   -2.817620    0.008881
  C      3.964568   -4.100503   -0.009600
  C      2.605360   -4.246106   -0.020545
  C     -3.545849    3.499148   -0.003142
  C     -3.096224    4.790048    0.010307
  C     -1.720330    5.042763    0.026397
  C     -0.821349    4.007718    0.028611
  H      1.486978    2.704678    0.046031
  H      2.971270    0.835740    0.041857
  H     -0.050372   -4.282722   -0.039067
  H     -2.295836   -3.394650   -0.046290
  H     -3.826396   -1.467455   -0.041934
  H     -4.182919    0.920747   -0.027304
  H      4.183398   -0.734909    0.030016
  H      5.596619   -2.704171    0.017515
  H      4.610417   -4.966235   -0.015176
  H      2.157459   -5.229728   -0.034892
  H     -4.605374    3.285647   -0.015706
  H     -3.793232    5.615166    0.008530
  H     -1.366543    6.063452    0.037004
  H      0.231581    4.240999    0.041001

----------------------------
CARTESIAN COORDINATES (A.U.)
----------------------------
  NO LB      ZA    FRAG     MASS         X           Y           Z
   0 C     6.0000    0    12.011    2.712954   -1.290411    0.019266
   1 C     6.0000    0    12.011    0.072396   -1.653669   -0.007283
   2 C     6.0000    0    12.011   -1.594256    0.444885   -0.002570
   3 C     6.0000    0    12.011   -0.642448    2.934522    0.028716
   4 C     6.0000    0    12.011    2.007178    3.238216    0.059237
   5 C     6.0000    0    12.011    3.608808    1.221534    0.054734
   6 C     6.0000    0    12.011    4.375638   -3.434073    0.008925
   7 C     6.0000    0    12.011    3.316513   -5.898871   -0.026104
   8 C     6.0000    0    12.011    0.673187   -6.199510   -0.048496
   9 C     6.0000    0    12.011   -0.938713   -4.162203   -0.040231
  10 C     6.0000    0    12.011   -3.623803   -4.501609   -0.064731
  11 C     6.0000    0    12.011   -5.205309   -2.510267   -0.060230
  12 C     6.0000    0    12.011   -4.266654    0.028151   -0.030779
  13 C     6.0000    0    12.011   -5.886056    2.059516   -0.029864
  14 C     6.0000    0    12.011   -4.994621    4.566039   -0.002588
  15 C     6.0000    0    12.011   -2.353946    5.039441    0.027868
  16 C     6.0000    0    12.011    7.025480   -3.226951    0.030053
  17 C     6.0000    0    12.011    8.545929   -5.324530    0.016782
  18 C     6.0000    0    12.011    7.491948   -7.748827   -0.018142
  19 C     6.0000    0    12.011    4.923417   -8.023977   -0.038825
  20 C     6.0000    0    12.011   -6.700683    6.612431   -0.005937
  21 C     6.0000    0    12.011   -5.851015    9.051879    0.019477
  22 C     6.0000    0    12.011   -3.250953    9.529442    0.049883
  23 C     6.0000    0    12.011   -1.552126    7.573490    0.054068
  24 H     1.0000    0     1.008    2.809981    5.111100    0.086985
  25 H     1.0000    0     1.008    5.614887    1.579320    0.079099
  26 H     1.0000    0     1.008   -0.095189   -8.093171   -0.073826
  27 H     1.0000    0     1.008   -4.338502   -6.414959   -0.087476
  28 H     1.0000    0     1.008   -7.230841   -2.773089   -0.079244
  29 H     1.0000    0     1.008   -7.904572    1.739959   -0.051597
  30 H     1.0000    0     1.008    7.905476   -1.388776    0.056722
  31 H     1.0000    0     1.008   10.576077   -5.110144    0.033099
  32 H     1.0000    0     1.008    8.712425   -9.384823   -0.028678
  33 H     1.0000    0     1.008    4.077007   -9.882754   -0.065937
  34 H     1.0000    0     1.008   -8.702895    6.208973   -0.029679
  35 H     1.0000    0     1.008   -7.168170   10.611125    0.016119
  36 H     1.0000    0     1.008   -2.582392   11.458263    0.069927
  37 H     1.0000    0     1.008    0.437624    8.014327    0.077481

--------------------------------
INTERNAL COORDINATES (ANGSTROEM)
--------------------------------
 C      0   0   0     0.000000000000     0.00000000     0.00000000
 C      1   0   0     1.410553453237     0.00000000     0.00000000
 C      2   1   0     1.418123637391   120.62044533     0.00000000
 C      3   2   1     1.410553425520   120.62044115     0.00000000
 C      4   3   2     1.411393975964   117.46553067   359.89153477
 C      5   4   3     1.362797984776   121.91393697     0.10925989
 C      1   2   3     1.435613303902   119.96084306   180.12618509
 C      7   1   2     1.419753997888   118.94894645   359.94949193
 C      8   7   1     1.407856209170   119.74518967   359.96373011
 C      9   8   7     1.374731661989   121.85883577     0.07172561
 C     10   9   8     1.432253421636   121.14303453   179.96490418
 C     11  10   9     1.345674354941   121.24953095   180.09302977
 C      3   2   1     1.431341083805   119.58991243   179.97838389
 C     13   3   2     1.374731539641   119.69645339   180.09117416
 C     14  13   3     1.407856081311   121.85883452     0.00000000
 C     15  14  13     1.419753976072   119.74519093   359.92782395
 C      7   1   2     1.406557166126   123.32524009   179.90406853
 C     17   7   1     1.370944838326   121.46314428   180.06195739
 C     18  17   7     1.399002505130   120.56693008     0.00000000
 C     19  18  17     1.367028489724   119.61482811     0.00000000
 C     15  14  13     1.409874986602   120.60188404   179.91017076
 C     21  15  14     1.367028478727   120.97637341   180.02439676
 C     22  21  15     1.399002500226   119.61482886     0.00000000
 C     23  22  21     1.370944831316   120.56693115     0.00000000
 H      5   4   3     1.078399679444   119.74584970   180.10679085
 H      6   5   4     1.078399679762   118.34021640   179.99753525
 H      9   8   7     1.081516454866   118.57743015   180.04008567
 H     11  10   9     1.080897811636   117.68992471     0.07806612
 H     12  11  10     1.080897814472   121.06053858   179.98449131
 H     14  13   3     1.081516503154   119.56372492   179.98747536
 H     17   7   1     1.078534051950   120.05438463     0.04182924
 H     18  17   7     1.080315801903   119.90447281   179.98356080
 H     19  18  17     1.080112521915   119.78037600   179.98622521
 H     20  19  18     1.080894792347   120.59993985   179.99760708
 H     21  15  14     1.080894814349   118.42368538     0.00000000
 H     22  21  15     1.080112569555   120.60479760   179.97942195
 H     23  22  21     1.080315825228   119.52859352   179.99947341
 H     24  23  22     1.078534066106   118.48247107   179.98797529

---------------------------
INTERNAL COORDINATES (A.U.)
---------------------------
 C      0   0   0     0.000000000000     0.00000000     0.00000000
 C      1   0   0     2.665559723875     0.00000000     0.00000000
 C      2   1   0     2.679865298710   120.62044533     0.00000000
 C      3   2   1     2.665559671497   120.62044115     0.00000000
 C      4   3   2     2.667148081638   117.46553067   359.89153477
 C      5   4   3     2.575314967087   121.91393697     0.10925989
 C      1   2   3     2.712915978588   119.96084306   180.12618509
 C      7   1   2     2.682946233549   118.94894645   359.94949193
 C      8   7   1     2.660462671272   119.74518967   359.96373011
 C      9   8   7     2.597866348789   121.85883577     0.07172561
 C     10   9   8     2.706566721263   121.14303453   179.96490418
 C     11  10   9     2.542955996279   121.24953095   180.09302977
 C      3   2   1     2.704842652621   119.58991243   179.97838389
 C     13   3   2     2.597866117586   119.69645339   180.09117416
 C     14  13   3     2.660462429654   121.85883452     0.00000000
 C     15  14  13     2.682946192321   119.74519093   359.92782395
 C      7   1   2     2.658007835683   123.32524009   179.90406853
 C     17   7   1     2.590710289150   121.46314428   180.06195739
 C     18  17   7     2.643731595365   120.56693008     0.00000000
 C     19  18  17     2.583309462847   119.61482811     0.00000000
 C     15  14  13     2.664277607743   120.60188404   179.91017076
 C     21  15  14     2.583309442064   120.97637341   180.02439676
 C     22  21  15     2.643731586099   119.61482886     0.00000000
 C     23  22  21     2.590710275902   120.56693115     0.00000000
 H      5   4   3     2.037880057057   119.74584970   180.10679085
 H      6   5   4     2.037880057658   118.34021640   179.99753525
 H      9   8   7     2.043769909026   118.57743015   180.04008567
 H     11  10   9     2.042600842746   117.68992471     0.07806612
 H     12  11  10     2.042600848106   121.06053858   179.98449131
 H     14  13   3     2.043770000276   119.56372492   179.98747536
 H     17   7   1     2.038133984293   120.05438463     0.04182924
 H     18  17   7     2.041501003744   119.90447281   179.98356080
 H     19  18  17     2.041116860238   119.78037600   179.98622521
 H     20  19  18     2.042595137118   120.59993985   179.99760708
 H     21  15  14     2.042595178695   118.42368538     0.00000000
 H     22  21  15     2.041116950265   120.60479760   179.97942195
 H     23  22  21     2.041501047821   119.52859352   179.99947341
 H     24  23  22     2.038134011044   118.48247107   179.98797529

---------------------
BASIS SET INFORMATION
---------------------
There are 2 groups of distinct atoms

 Group   1 Type C   : 7s4p1d contracted to 3s2p1d pattern {511/31/1}
 Group   2 Type H   : 4s1p contracted to 2s1p pattern {31/1}

Atom   0C    basis set group =>   1
Atom   1C    basis set group =>   1
Atom   2C    basis set group =>   1
Atom   3C    basis set group =>   1
Atom   4C    basis set group =>   1
Atom   5C    basis set group =>   1
Atom   6C    basis set group =>   1
Atom   7C    basis set group =>   1
Atom   8C    basis set group =>   1
Atom   9C    basis set group =>   1
Atom  10C    basis set group =>   1
Atom  11C    basis set group =>   1
Atom  12C    basis set group =>   1
Atom  13C    basis set group =>   1
Atom  14C    basis set group =>   1
Atom  15C    basis set group =>   1
Atom  16C    basis set group =>   1
Atom  17C    basis set group =>   1
Atom  18C    basis set group =>   1
Atom  19C    basis set group =>   1
Atom  20C    basis set group =>   1
Atom  21C    basis set group =>   1
Atom  22C    basis set group =>   1
Atom  23C    basis set group =>   1
Atom  24H    basis set group =>   2
Atom  25H    basis set group =>   2
Atom  26H    basis set group =>   2
Atom  27H    basis set group =>   2
Atom  28H    basis set group =>   2
Atom  29H    basis set group =>   2
Atom  30H    basis set group =>   2
Atom  31H    basis set group =>   2
Atom  32H    basis set group =>   2
Atom  33H    basis set group =>   2
Atom  34H    basis set group =>   2
Atom  35H    basis set group =>   2
Atom  36H    basis set group =>   2
Atom  37H    basis set group =>   2
---------------------------------
AUXILIARY/J BASIS SET INFORMATION
---------------------------------
There are 2 groups of distinct atoms

 Group   1 Type C   : 12s5p4d2f1g contracted to 6s4p3d1f1g pattern {711111/2111/211/2/1}
 Group   2 Type H   : 5s2p1d contracted to 3s1p1d pattern {311/2/1}

Atom   0C    basis set group =>   1
Atom   1C    basis set group =>   1
Atom   2C    basis set group =>   1
Atom   3C    basis set group =>   1
Atom   4C    basis set group =>   1
Atom   5C    basis set group =>   1
Atom   6C    basis set group =>   1
Atom   7C    basis set group =>   1
Atom   8C    basis set group =>   1
Atom   9C    basis set group =>   1
Atom  10C    basis set group =>   1
Atom  11C    basis set group =>   1
Atom  12C    basis set group =>   1
Atom  13C    basis set group =>   1
Atom  14C    basis set group =>   1
Atom  15C    basis set group =>   1
Atom  16C    basis set group =>   1
Atom  17C    basis set group =>   1
Atom  18C    basis set group =>   1
Atom  19C    basis set group =>   1
Atom  20C    basis set group =>   1
Atom  21C    basis set group =>   1
Atom  22C    basis set group =>   1
Atom  23C    basis set group =>   1
Atom  24H    basis set group =>   2
Atom  25H    basis set group =>   2
Atom  26H    basis set group =>   2
Atom  27H    basis set group =>   2
Atom  28H    basis set group =>   2
Atom  29H    basis set group =>   2
Atom  30H    basis set group =>   2
Atom  31H    basis set group =>   2
Atom  32H    basis set group =>   2
Atom  33H    basis set group =>   2
Atom  34H    basis set group =>   2
Atom  35H    basis set group =>   2
Atom  36H    basis set group =>   2
Atom  37H    basis set group =>   2
---------------------------------
AUXILIARY/C BASIS SET INFORMATION
---------------------------------
There are 2 groups of distinct atoms

 Group   1 Type C   : 8s6p5d3f contracted to 6s5p4d1f pattern {311111/21111/2111/3}
 Group   2 Type H   : 4s3p2d contracted to 3s2p1d pattern {211/21/2}

Atom   0C    basis set group =>   1
Atom   1C    basis set group =>   1
Atom   2C    basis set group =>   1
Atom   3C    basis set group =>   1
Atom   4C    basis set group =>   1
Atom   5C    basis set group =>   1
Atom   6C    basis set group =>   1
Atom   7C    basis set group =>   1
Atom   8C    basis set group =>   1
Atom   9C    basis set group =>   1
Atom  10C    basis set group =>   1
Atom  11C    basis set group =>   1
Atom  12C    basis set group =>   1
Atom  13C    basis set group =>   1
Atom  14C    basis set group =>   1
Atom  15C    basis set group =>   1
Atom  16C    basis set group =>   1
Atom  17C    basis set group =>   1
Atom  18C    basis set group =>   1
Atom  19C    basis set group =>   1
Atom  20C    basis set group =>   1
Atom  21C    basis set group =>   1
Atom  22C    basis set group =>   1
Atom  23C    basis set group =>   1
Atom  24H    basis set group =>   2
Atom  25H    basis set group =>   2
Atom  26H    basis set group =>   2
Atom  27H    basis set group =>   2
Atom  28H    basis set group =>   2
Atom  29H    basis set group =>   2
Atom  30H    basis set group =>   2
Atom  31H    basis set group =>   2
Atom  32H    basis set group =>   2
Atom  33H    basis set group =>   2
Atom  34H    basis set group =>   2
Atom  35H    basis set group =>   2
Atom  36H    basis set group =>   2
Atom  37H    basis set group =>   2


           ************************************************************
           *        Program running with 104 parallel MPI-processes   *
           *              working on a common directory               *
           ************************************************************
------------------------------------------------------------------------------
                             ORCA STARTUP CALCULATIONS
                           -- RI-GTO INTEGRALS CHOSEN --
------------------------------------------------------------------------------
------------------------------------------------------------------------------
                   ___                                                        
                  /   \      - P O W E R E D   B Y -                         
                 /     \                                                     
                 |  |  |   _    _      __       _____    __    __             
                 |  |  |  | |  | |    /  \     |  _  \  |  |  /  |          
                  \  \/   | |  | |   /    \    | | | |  |  | /  /          
                 / \  \   | |__| |  /  /\  \   | |_| |  |  |/  /          
                |  |  |   |  __  | /  /__\  \  |    /   |      \           
                |  |  |   | |  | | |   __   |  |    \   |  |\   \          
                \     /   | |  | | |  |  |  |  | |\  \  |  | \   \       
                 \___/    |_|  |_| |__|  |__|  |_| \__\ |__|  \__/        
                                                                              
                      - O R C A' S   B I G   F R I E N D -                    
                                      &                                       
                       - I N T E G R A L  F E E D E R -                       
                                                                              
 v1 FN, 2020, v2 2021, v3 2022-2024                                           
------------------------------------------------------------------------------


----------------------
SHARK INTEGRAL PACKAGE
----------------------

Number of atoms                             ...     38
Number of basis functions                   ...    406
Number of shells                            ...    186
Maximum angular momentum                    ...      2
Integral batch strategy                     ... SHARK/LIBINT Hybrid
RI-J (if used) integral strategy            ... SPLIT-RIJ (Revised 2003 algorithm where possible)
Printlevel                                  ...      1
Contraction scheme used                     ... SEGMENTED contraction
Prescreening option                         ... SCHWARTZ
   Thresh                                   ... 1.000e-10
   Tcut                                     ... 1.000e-11
   Tpresel                                  ... 1.000e-11 
Coulomb Range Separation                    ... NOT USED
Exchange Range Separation                   ... NOT USED
Multipole approximations                    ... NOT USED
Finite Nucleus Model                        ... NOT USED
CABS basis                                  ... NOT available
Auxiliary Coulomb fitting basis             ... AVAILABLE
   # of basis functions in Aux-J            ...   1330
   # of shells in Aux-J                     ...    430
   Maximum angular momentum in Aux-J        ...      4
Auxiliary J/K fitting basis                 ... NOT available
Auxiliary Correlation fitting basis         ... AVAILABLE
   # of basis functions in Aux-C            ...   1348
   # of shells in Aux-C                     ...    468
   Maximum angular momentum in Aux-C        ...      3
Auxiliary 'external' fitting basis          ... NOT available

Checking pre-screening integrals            ... done (  0.0 sec) Dimension = 186
Check shell pair data                       ... done (  0.0 sec)
Shell pair information
Shell pair cut-off parameter TPreSel        ...   1.0e-11
Total number of shell pairs                 ...     17391
Shell pairs after pre-screening             ...     12376
Total number of primitive shell pairs       ...     64615
Primitive shell pairs kept                  ...     29476
          la=0 lb=0:   3595 shell pairs
          la=1 lb=0:   4519 shell pairs
          la=1 lb=1:   1482 shell pairs
          la=2 lb=0:   1574 shell pairs
          la=2 lb=1:   1033 shell pairs
          la=2 lb=2:    173 shell pairs

Calculating one electron integrals          ... done (  0.6 sec)
Calculating RI/J V-Matrix + Cholesky decomp.... done (  0.3 sec)
Calculating RI/C V-Matrix + Cholesky decomp.... done (  0.3 sec)
Calculating Nuclear repulsion               ... done (  0.0 sec) ENN=   1787.241953416160 Eh

Diagonalization of the overlap matrix:
Smallest eigenvalue                        ... 1.385e-04
Time for diagonalization                   ...    0.020 sec
Threshold for overlap eigenvalues          ... 1.000e-07
Number of eigenvalues below threshold      ... 0
Time for construction of square roots      ...    0.009 sec
Total time needed                          ...    0.042 sec

-------------------
DFT GRID GENERATION
-------------------

General Integration Accuracy     IntAcc      ... 4.959
Radial Grid Type                 RadialGrid  ... OptM3 with GC (2021)
Angular Grid (max. ang.)         AngularGrid ... 6 (Lebedev-590)
Angular grid pruning method      GridPruning ... 4 (adaptive)
Weight generation scheme         WeightScheme... mBecke (2022)
Basis function cutoff            BFCut       ... 1.0000e-10
Integration weight cutoff        WCut        ... 1.0000e-14
Partially contracted basis set               ... off
Rotationally invariant grid construction     ... off
Angular grids for H and He will be reduced by one unit

Total number of grid points                  ...   457650
Total number of batches                      ...     7170
Average number of points per batch           ...       63
Average number of grid points per atom       ...    12043

--------------------
COSX GRID GENERATION
--------------------

GRIDX 1
-------
General Integration Accuracy     IntAcc      ... 4.020
Radial Grid Type                 RadialGrid  ... OptM3 with GC (2021)
Angular Grid (max. ang.)         AngularGrid ... 2 (Lebedev-110)
Angular grid pruning method      GridPruning ... 4 (adaptive)
Weight generation scheme         WeightScheme... mBecke (2022)
Basis function cutoff            BFCut       ... 1.0000e-10
Integration weight cutoff        WCut        ... 1.0000e-14
Partially contracted basis set               ... on
Rotationally invariant grid construction     ... off
Angular grids for H and He will be reduced by one unit

Total number of grid points                  ...    52196
Total number of batches                      ...      424
Average number of points per batch           ...      123
Average number of grid points per atom       ...     1374
UseSFitting                                  ... on

GRIDX 2
-------
General Integration Accuracy     IntAcc      ... 4.338
Radial Grid Type                 RadialGrid  ... OptM3 with GC (2021)
Angular Grid (max. ang.)         AngularGrid ... 3 (Lebedev-194)
Angular grid pruning method      GridPruning ... 4 (adaptive)
Weight generation scheme         WeightScheme... mBecke (2022)
Basis function cutoff            BFCut       ... 1.0000e-10
Integration weight cutoff        WCut        ... 1.0000e-14
Partially contracted basis set               ... on
Rotationally invariant grid construction     ... off
Angular grids for H and He will be reduced by one unit

Total number of grid points                  ...   114420
Total number of batches                      ...      912
Average number of points per batch           ...      125
Average number of grid points per atom       ...     3011
UseSFitting                                  ... on

GRIDX 3
-------
General Integration Accuracy     IntAcc      ... 4.871
Radial Grid Type                 RadialGrid  ... OptM3 with GC (2021)
Angular Grid (max. ang.)         AngularGrid ... 4 (Lebedev-302)
Angular grid pruning method      GridPruning ... 4 (adaptive)
Weight generation scheme         WeightScheme... mBecke (2022)
Basis function cutoff            BFCut       ... 1.0000e-10
Integration weight cutoff        WCut        ... 1.0000e-14
Partially contracted basis set               ... on
Rotationally invariant grid construction     ... off
Angular grids for H and He will be reduced by one unit

Total number of grid points                  ...   211316
Total number of batches                      ...     1673
Average number of points per batch           ...      126
Average number of grid points per atom       ...     5561
UseSFitting                                  ... on
Initializing property integral containers    ... done (  0.1 sec)

SHARK setup successfully completed in  14.5 seconds

Maximum memory used throughout the entire STARTUP-calculation: 88.7 MB


           ************************************************************
           *        Program running with 104 parallel MPI-processes   *
           *              working on a common directory               *
           ************************************************************
-------------------------------------------------------------------------------
                                 ORCA GUESS
                   Start orbitals & Density for SCF / CASSCF
-------------------------------------------------------------------------------

------------
SCF SETTINGS
------------
Hamiltonian:
 Density Functional     Method          .... DFT(GTOs)
 Exchange Functional    Exchange        .... PBE
   PBE kappa parameter   XKappa         ....  0.804000
   PBE mue parameter    XMuePBE         ....  0.219520
 Correlation Functional Correlation     .... P86
 LDA part of GGA corr.  LDAOpt          .... VWN-5
 Gradients option       PostSCFGGA      .... off
 Hybrid DFT is turned on
   Fraction HF Exchange ScalHFX         ....  0.690000
   Scaling of DF-GGA-X  ScalDFX         ....  0.310000
   Scaling of DF-GGA-C  ScalDFC         ....  0.403800
   Scaling of DF-LDA-C  ScalLDAC        ....  0.403800
   Perturbative correction              ....  1.000000
 RI-approximation to the Coulomb term is turned on
   Number of AuxJ basis functions       .... 1330
   RIJ-COSX (HFX calculated with COS-X)).... on


General Settings:
 Integral files         IntName         .... hc_c24h14_0pent_10_dz_ri
 Hartree-Fock type      HFTyp           .... RHF
 Total Charge           Charge          ....    0
 Multiplicity           Mult            ....    1
 Number of Electrons    NEL             ....  158
 Basis Dimension        Dim             ....  406
 Nuclear Repulsion      ENuc            ....   1787.2419534162 Eh

Convergence Acceleration:
 AO-DIIS                CNVDIIS         .... on
   Start iteration      DIISMaxIt       ....    12
   Startup error        DIISStart       ....  0.200000
   # of expansion vecs  DIISMaxEq       ....     5
   Bias factor          DIISBfac        ....   1.050
   Max. coefficient     DIISMaxC        ....  10.000
 MO-DIIS                CNVKDIIS        .... off
 Trust-Rad. Augm. Hess. CNVTRAH         .... auto
   Auto Start mean grad. ratio tolernc. ....  1.125000
   Auto Start start iteration           ....    50
   Auto Start num. interpolation iter.  ....    10
   Max. Number of Micro iterations      ....    24
   Max. Number of Macro iterations      .... Maxiter - #DIIS iter
   Number of Davidson start vectors     ....     2
   Converg. threshold    (grad. norm)   ....   5.000e-05
   Grad. Scal. Fac. for Micro threshold ....   0.100
   Minimum threshold for Micro iter.    ....   1.000e-02
   NR start threshold (gradient norm)   ....   1.000e-04
   Initial trust radius                 ....   0.400
   Minimum AH scaling param. (alpha)    ....   1.000
   Maximum AH scaling param. (alpha)    .... 1000.000
   Quad. conv. algorithm                .... NR
   White noise on init. David. guess    .... on
   Maximum white noise                  ....   0.010
   Pseudo random numbers                .... off
   Inactive MOs                         .... canonical
   Orbital update algorithm             .... Taylor
   Preconditioner                       .... Diag
   Full preconditioner red. dimension   ....   250
 SOSCF                  CNVSOSCF        .... on
   Start iteration      SOSCFMaxIt      ....   150
   Startup grad/error   SOSCFStart      ....  0.003300
   Hessian update       SOSCFHessUp     .... L-BFGS
 Level Shifting         CNVShift        .... on
   Level shift para.    LevelShift      ....    0.2500
   Turn off err/grad.   ShiftErr        ....    0.0010
 Zerner damping         CNVZerner       .... off
 Static damping         CNVDamp         .... on
   Fraction old density DampFac         ....    0.7000
   Max. Damping (<1)    DampMax         ....    0.9800
   Min. Damping (>=0)   DampMin         ....    0.0000
   Turn off err/grad.   DampErr         ....    0.1000

SCF Procedure:
 Maximum # iterations   MaxIter         ....   125
 SCF integral mode      SCFMode         .... Direct
   Integral package                     .... SHARK and LIBINT hybrid scheme
 Reset frequency        DirectResetFreq ....    20
 Integral Threshold     Thresh          ....  1.000e-10 Eh
 Primitive CutOff       TCut            ....  1.000e-11 Eh

Convergence Tolerance:
 Convergence Check Mode ConvCheckMode   .... Total+1el-Energy
 Convergence forced     ConvForced      .... 0
 Energy Change          TolE            ....  1.000e-06 Eh
 1-El. energy change                    ....  1.000e-03 Eh
 Orbital Gradient       TolG            ....  5.000e-05
 Orbital Rotation angle TolX            ....  5.000e-05
 DIIS Error             TolErr          ....  1.000e-06

------------------------------
INITIAL GUESS: MODEL POTENTIAL
------------------------------
Loading Hartree-Fock densities                     ... done
Calculating cut-offs                               ... done
Initializing the effective Hamiltonian             ... done
Setting up the integral package (SHARK)            ... done
Starting the Coulomb interaction                   ... done (   0.2 sec)
Making the grid                                    ... done (   2.0 sec)
Mapping shells                                     ... done
Starting the XC term evaluation                    ... done (   1.9 sec)
  promolecular density results
     # of electrons  =    157.999983414
     EX              =   -127.048635790
     EC              =      0.201082056
     EX+EC           =   -126.847553735
Transforming the Hamiltonian                       ... done (   0.0 sec)
Diagonalizing the Hamiltonian                      ... done (   0.0 sec)
Back transforming the eigenvectors                 ... done (   0.0 sec)
Now organizing SCF variables                       ... done
                      ------------------
                      INITIAL GUESS DONE (   4.3 sec)
                      ------------------
             **** ENERGY FILE WAS UPDATED (hc_c24h14_0pent_10_dz_ri.en.tmp) ****
Finished Guess after  19.0 sec
Maximum memory used throughout the entire GUESS-calculation: 29.8 MB


           ************************************************************
           *        Program running with 104 parallel MPI-processes   *
           *              working on a common directory               *
           ************************************************************

-------------------------------------------------------------------------------------------
                                      ORCA LEAN-SCF
                              memory conserving SCF solver
-------------------------------------------------------------------------------------------

----------------------------------------D-I-I-S--------------------------------------------
Iteration    Energy (Eh)           Delta-E    RMSDP     MaxDP     DIISErr   Damp  Time(sec)
-------------------------------------------------------------------------------------------
               ***  Starting incremental Fock matrix formation  ***
    1    -918.1486521391257156     0.00e+00  3.96e-03  1.10e-01  1.19e-01  0.700   1.7
    2    -918.2948737789124607    -1.46e-01  3.00e-03  8.37e-02  7.45e-02  0.700   1.6
                               ***Turning on AO-DIIS***
    3    -918.3830594787841619    -8.82e-02  2.00e-03  5.73e-02  4.51e-02  0.700   4.6
    4    -918.4385194525702900    -5.55e-02  4.69e-03  1.36e-01  3.08e-02  0.000   1.5
                              *** Initializing SOSCF ***
---------------------------------------S-O-S-C-F--------------------------------------
Iteration    Energy (Eh)           Delta-E    RMSDP     MaxDP     MaxGrad    Time(sec)
--------------------------------------------------------------------------------------
    5    -918.5592879135811017    -1.21e-01  1.89e-04  4.83e-03  2.49e-03     1.7
               *** Restarting incremental Fock matrix formation ***
    6    -918.5595982239315163    -3.10e-04  9.86e-05  2.24e-03  1.72e-03     1.7
    7    -918.5596995097912441    -1.01e-04  7.87e-05  1.99e-03  7.92e-04     1.5
    8    -918.5597188503852522    -1.93e-05  2.69e-05  5.56e-04  4.50e-04     1.6
    9    -918.5597249651846141    -6.11e-06  9.09e-06  2.62e-04  7.53e-05     1.7
   10    -918.5597252847583150    -3.20e-07  3.30e-06  8.07e-05  3.56e-05     1.6
                 **** Energy Check signals convergence ****

               *****************************************************
               *                     SUCCESS                       *
               *           SCF CONVERGED AFTER  10 CYCLES          *
               *****************************************************

Recomputing exchange energy using gridx3       ... done (    0.793 sec)
Old exchange energy                            :    -89.353262142 Eh
New exchange energy                            :    -89.353264583 Eh
Exchange energy change after final integration :     -0.000002441 Eh
Total energy after final integration           :   -918.559727726 Eh
             **** ENERGY FILE WAS UPDATED (hc_c24h14_0pent_10_dz_ri.en.tmp) ****

----------------
TOTAL SCF ENERGY
----------------

Total Energy       :       -918.55972772558027 Eh          -24995.28093 eV

Components:
Nuclear Repulsion  :       1787.24195341615950 Eh           48633.32602 eV
Electronic Energy  :      -2705.80167870091782 Eh          -73628.60688 eV
One Electron Energy:      -4792.93916196155806 Eh         -130422.50515 eV
Two Electron Energy:       2087.13748326064024 Eh           56793.89827 eV

Virial components:
Potential Energy   :      -1831.00234470306032 Eh          -49824.10681 eV
Kinetic Energy     :        912.44261697748004 Eh           24828.82588 eV
Virial Ratio       :          2.00670410460261

DFT components:
N(Alpha)           :       78.999982321290 electrons
N(Beta)            :       78.999982321290 electrons
N(Total)           :      157.999964642581 electrons
E(X)               :      -39.973953950030 Eh       
E(C)               :       -2.357789881570 Eh       
E(XC)              :      -42.331743831600 Eh       

---------------
SCF CONVERGENCE
---------------

  Last Energy change         ...    3.1957e-07  Tolerance :   1.0000e-06
  Last MAX-Density change    ...    8.0672e-05  Tolerance :   1.0000e-05
  Last RMS-Density change    ...    3.3037e-06  Tolerance :   1.0000e-06
  Last DIIS Error            ...    2.4888e-03  Tolerance :   1.0000e-06
  Last Orbital Gradient      ...    3.5558e-05  Tolerance :   5.0000e-05
  Last Orbital Rotation      ...    9.2012e-05  Tolerance :   5.0000e-05


----------------
ORBITAL ENERGIES
----------------

  NO   OCC          E(Eh)            E(eV) 
   0   2.0000     -10.839394      -294.9549 
   1   2.0000     -10.839333      -294.9533 
   2   2.0000     -10.837776      -294.9109 
   3   2.0000     -10.837769      -294.9107 
   4   2.0000     -10.837555      -294.9049 
   5   2.0000     -10.836927      -294.8878 
   6   2.0000     -10.835833      -294.8580 
   7   2.0000     -10.835814      -294.8575 
   8   2.0000     -10.834600      -294.8245 
   9   2.0000     -10.834588      -294.8241 
  10   2.0000     -10.830870      -294.7230 
  11   2.0000     -10.830655      -294.7171 
  12   2.0000     -10.829683      -294.6907 
  13   2.0000     -10.829596      -294.6883 
  14   2.0000     -10.829233      -294.6784 
  15   2.0000     -10.829225      -294.6782 
  16   2.0000     -10.829086      -294.6744 
  17   2.0000     -10.829078      -294.6742 
  18   2.0000     -10.828592      -294.6610 
  19   2.0000     -10.828587      -294.6608 
  20   2.0000     -10.827707      -294.6369 
  21   2.0000     -10.827703      -294.6368 
  22   2.0000     -10.826982      -294.6172 
  23   2.0000     -10.826978      -294.6170 
  24   2.0000      -1.089445       -29.6453 
  25   2.0000      -1.062485       -28.9117 
  26   2.0000      -1.037111       -28.2212 
  27   2.0000      -1.013915       -27.5900 
  28   2.0000      -0.996551       -27.1175 
  29   2.0000      -0.953729       -25.9523 
  30   2.0000      -0.951907       -25.9027 
  31   2.0000      -0.919505       -25.0210 
  32   2.0000      -0.913713       -24.8634 
  33   2.0000      -0.907553       -24.6958 
  34   2.0000      -0.876671       -23.8554 
  35   2.0000      -0.859135       -23.3783 
  36   2.0000      -0.788567       -21.4580 
  37   2.0000      -0.785186       -21.3660 
  38   2.0000      -0.775181       -21.0937 
  39   2.0000      -0.758630       -20.6434 
  40   2.0000      -0.734449       -19.9854 
  41   2.0000      -0.731695       -19.9104 
  42   2.0000      -0.698180       -18.9984 
  43   2.0000      -0.666081       -18.1250 
  44   2.0000      -0.648470       -17.6458 
  45   2.0000      -0.647683       -17.6243 
  46   2.0000      -0.634059       -17.2536 
  47   2.0000      -0.621061       -16.8999 
  48   2.0000      -0.588269       -16.0076 
  49   2.0000      -0.582929       -15.8623 
  50   2.0000      -0.578744       -15.7484 
  51   2.0000      -0.578121       -15.7315 
  52   2.0000      -0.555900       -15.1268 
  53   2.0000      -0.547597       -14.9009 
  54   2.0000      -0.534983       -14.5576 
  55   2.0000      -0.532582       -14.4923 
  56   2.0000      -0.528633       -14.3848 
  57   2.0000      -0.521514       -14.1911 
  58   2.0000      -0.508236       -13.8298 
  59   2.0000      -0.502641       -13.6776 
  60   2.0000      -0.498257       -13.5583 
  61   2.0000      -0.497339       -13.5333 
  62   2.0000      -0.488711       -13.2985 
  63   2.0000      -0.480502       -13.0751 
  64   2.0000      -0.463856       -12.6222 
  65   2.0000      -0.455017       -12.3816 
  66   2.0000      -0.443484       -12.0678 
  67   2.0000      -0.437661       -11.9094 
  68   2.0000      -0.431953       -11.7540 
  69   2.0000      -0.424965       -11.5639 
  70   2.0000      -0.408051       -11.1036 
  71   2.0000      -0.404529       -11.0078 
  72   2.0000      -0.364176        -9.9097 
  73   2.0000      -0.349203        -9.5023 
  74   2.0000      -0.320317        -8.7163 
  75   2.0000      -0.316634        -8.6161 
  76   2.0000      -0.299243        -8.1428 
  77   2.0000      -0.262968        -7.1557 
  78   2.0000      -0.227262        -6.1841 
  79   0.0000      -0.007255        -0.1974 
  80   0.0000       0.019024         0.5177 
  81   0.0000       0.061958         1.6860 
  82   0.0000       0.064959         1.7676 
  83   0.0000       0.079475         2.1626 
  84   0.0000       0.122438         3.3317 
  85   0.0000       0.122592         3.3359 
  86   0.0000       0.137936         3.7534 
  87   0.0000       0.142158         3.8683 
  88   0.0000       0.143726         3.9110 
  89   0.0000       0.156479         4.2580 
*Only the first 10 virtual orbitals were printed.
-------
TIMINGS
-------

Total SCF time: 0 days 0 hours 0 min 34 sec 

Total time                  ....      34.939 sec
Sum of individual times     ....      34.724 sec  ( 99.4%)

SCF preparation             ....      14.603 sec  ( 41.8%)
Fock matrix formation       ....      15.821 sec  ( 45.3%)
  Startup                   ....       0.936 sec  (  5.9% of F)
  Split-RI-J                ....       1.975 sec  ( 12.5% of F)
  Chain of spheres X        ....       4.836 sec  ( 30.6% of F)
  XC integration            ....       6.670 sec  ( 42.2% of F)
    XC Preparation          ....       0.000 sec  (  0.0% of XC)
    Basis function eval.    ....       0.270 sec  (  4.1% of XC)
    Density eval.           ....       0.144 sec  (  2.2% of XC)
    XC-Functional eval.     ....       0.046 sec  (  0.7% of XC)
    XC-Potential eval.      ....       0.136 sec  (  2.0% of XC)
Diagonalization             ....       0.000 sec  (  0.0%)
Density matrix formation    ....       1.116 sec  (  3.2%)
Total Energy calculation    ....       0.714 sec  (  2.0%)
Population analysis         ....       0.000 sec  (  0.0%)
Orbital Transformation      ....       0.294 sec  (  0.8%)
Orbital Orthonormalization  ....       0.000 sec  (  0.0%)
DIIS solution               ....       1.228 sec  (  3.5%)
SOSCF solution              ....       0.893 sec  (  2.6%)
Finished LeanSCF after  35.3 sec

Maximum memory used throughout the entire LEANSCF-calculation: 70.0 MB


           ************************************************************
           *        Program running with 104 parallel MPI-processes   *
           *              working on a common directory               *
           ************************************************************

------------------------------------------------------------------------------
                                ORCA  MP2 
------------------------------------------------------------------------------


-------------
RI-MP2 ENERGY
-------------
Dimension of the orbital basis            ...  406
Dimension of the AuxC basis               ... 1348
Memory devoted to MP2                     ... 4096 MB   
Data format for matrix containers         ... DOUBLE
Compression type for matrix containers    ... UNCOMPRESSED
Scaling for aa/bb pairs                   ...   5.710e-02
Scaling for ab pairs                      ...   5.979e-01
Overall scaling of the MP2 energy         ...   1.000e+00

-----------------------
SHARK RI TRANSFORMATION
-----------------------

Number of basis functions                ...    406
Number of aux functions                  ...   1348
Number of operators                      ...      1
Generation of IJK                        ... NO
Generation of IAK                        ... YES
Generation of ABK                        ... NO
Orbital Range Operator  0:    0-  78 to   79- 405

Aux basis identifier                     ...   AUXC
Contraction scheme used                  ... SEGMENTED
Do orthogonalization                     ... YES
All operator combinations                ... NO
Transpose (ia|K)                         ... NO
Integral generator used                  ... LIBINT
Starting integral generation + trafo... 
Half trafo (segmented) done. Total time =  0.7 sec. integrals=  0.1 sec trafo=  0.0 sec
Integral generation and half transformation done (  0.7 sec)

Reading or making V^(-1/2)          ... done (  0.1 sec)
Sorting IAK integrals               ... done (  1.2 sec)

SHARK RI integral transformation done. Total time =  2.1 sec.

Opening buffers                              ... done

Starting loop over batches of integrals:

Operator 0  - window                       ... (  0- 78)x( 79-405)
Operator 0  - Memory available             ...  4096 MB
Operator 0  - Memory needed per MO         ...   3.4 MB
Operator 0  - Number of orbitals per batch ... 1
Operator 0  - Number of batches            ... 1

OPERATOR  0   PASS   0:  MOs     0 ...    0 +    1 ...    1 +    2 ...    2 +    3 ...    3
                            +    4 ...    4 +    5 ...    5 +    6 ...    6 +    7 ...    7
                            +    8 ...    8 +    9 ...    9 +   10 ...   10 +   11 ...   11
                            +   12 ...   12 +   13 ...   13 +   14 ...   14 +   15 ...   15
                            +   16 ...   16 +   17 ...   17 +   18 ...   18 +   19 ...   19
                            +   20 ...   20 +   21 ...   21 +   22 ...   22 +   23 ...   23
                            +   24 ...   24 +   25 ...   25 +   26 ...   26 +   27 ...   27
                            +   28 ...   28 +   29 ...   29 +   30 ...   30 +   31 ...   31
                            +   32 ...   32 +   33 ...   33 +   34 ...   34 +   35 ...   35
                            +   36 ...   36 +   37 ...   37 +   38 ...   38 +   39 ...   39
                            +   40 ...   40 +   41 ...   41 +   42 ...   42 +   43 ...   43
                            +   44 ...   44 +   45 ...   45 +   46 ...   46 +   47 ...   47
                            +   48 ...   48 +   49 ...   49 +   50 ...   50 +   51 ...   51
                            +   52 ...   52 +   53 ...   53 +   54 ...   54 +   55 ...   55
                            +   56 ...   56 +   57 ...   57 +   58 ...   58 +   59 ...   59
                            +   60 ...   60 +   61 ...   61 +   62 ...   62 +   63 ...   63
                            +   64 ...   64 +   65 ...   65 +   66 ...   66 +   67 ...   67
                            +   68 ...   68 +   69 ...   69 +   70 ...   70 +   71 ...   71
                            +   72 ...   72 +   73 ...   73 +   74 ...   74 +   75 ...   75
                            +   76 ...   76 +   77 ...   77 +   78 ...   78
  Reading integrals       ... ok
Time spent in pair loops =     0.745 sec

-----------------------------------------------
 RI-MP2 CORRELATION ENERGY:     -1.605525315 Eh
-----------------------------------------------


-------
TIMINGS
-------

Total time                :    3.455 sec
Integral trafo            :    2.175 sec ( 63.0%)
K(i,j) operators          :    0.007 sec (  0.2%)
T(i,j) pair energies      :    0.001 sec (  0.0%)
V**(-1/2)                 :    0.531 sec ( 15.4%)


---------------------------------------
MP2 TOTAL ENERGY:     -920.165253040 Eh
---------------------------------------

Maximum memory used throughout the entire MP2-calculation: 39.5 MB


-------------------------------------------------------------------------------
                          DFT DISPERSION CORRECTION                            
                                                                               
                                DFTD4 V3.4.0                                   
-------------------------------------------------------------------------------
The REV-DSD-PBEP86-2021 functional is recognized
A user input s6-coefficient scaling factor has been recognized
A user input a1-coefficient scaling factor has been recognized
A user input s8-coefficient scaling factor has been recognized
A user input a2-coefficient scaling factor has been recognized
A user input s9-coefficient scaling factor has been recognized
Active option DFTDOPT                   ...         5   

-------------------------   ----------------
Dispersion correction           -0.038150012
-------------------------   ----------------


-------------------------   --------------------
FINAL SINGLE POINT ENERGY      -920.203403052273
-------------------------   --------------------



           ************************************************************
           *        Program running with 104 parallel MPI-processes   *
           *              working on a common directory               *
           ************************************************************

------------------------------------------------------------------------------
                              ORCA PROPERTY CALCULATIONS
------------------------------------------------------------------------------

GBWName                                 ... hc_c24h14_0pent_10_dz_ri.gbw
Number of atoms                         ...     38
Number of basis functions               ...    406
Max core memory                         ...   1024 MB

Electric properties:
Dipole moment                           ... YES
Quadrupole moment                       ...  NO
Static polarizability (Dipole/Dipole)   ...  NO
Static polarizability (Dipole/Quad.)    ...  NO
Static polarizability (Quad./Quad.)     ...  NO
Static polarizability (Velocity)        ...  NO

Atomic electric properties:
Dipole moment                           ...  NO
Quadrupole moment                       ...  NO
Static polarizability                   ...  NO

Choice of electric origin               ... Center of mass
Position of electric origin             ...    -0.076663    -0.060964    -0.000259

General magnetic properties:
Magnetizability                         ...  NO

EPR properties:
g-Tensor (aka g-matrix)                 ...  NO
Zero-Field splitting spin-orbit         ...  NO
Zero-field splitting spin-spin          ...  NO
Hyperfine couplings                     ...  NO (   0 nuclei)
Quadrupole couplings                    ...  NO (   0 nuclei)
Contact density                         ...  NO (   0 nuclei)

NMR properties:
Chemical shifts                         ...  NO (   0 nuclei)
Spin-rotation constants                 ...  NO (   0 nuclei)
Spin-spin couplings                     ...  NO (   0 nuclei,    0 pairs)

Choice of magnetic origin               ... GIAO
Position of magnetic origin             ...     0.000000     0.000000     0.000000

Properties with geometric perturbations:
SCF Hessian                             ...  NO
IR spectrum                             ...  NO
VCD spectrum                            ...  NO
X-ray spectroscopy properties:
SCF XES/XAS/RIXS spectra                ...  NO


-------------
DIPOLE MOMENT
-------------

Method             : SCF
Type of density    : Electron Density
Multiplicity       :   1
Irrep              :   0
Energy             :  -918.5597277255802737 Eh
Relativity type    : 
Basis              : AO
                                X                 Y                 Z
Electronic contribution:     -1.550888348      -1.231466722      -0.004687863
Nuclear contribution   :      1.580829915       1.255472719       0.003287472
                        -----------------------------------------
Total Dipole Moment    :      0.029941566       0.024005998      -0.001400391
                        -----------------------------------------
Magnitude (a.u.)       :      0.038402427
Magnitude (Debye)      :      0.097611213



--------------------
Rotational spectrum 
--------------------
 
Rotational constants in cm-1:             0.022222             0.005009             0.004088 
Rotational constants in MHz :           666.211312           150.167261           122.545300 

Dipole components along the rotational axes: 
x,y,z [a.u.] :    -0.000175     0.038357    -0.001859 
x,y,z [Debye]:    -0.000445     0.097496    -0.004724 

 

Dipole moment calculation done in   0.1 sec 

Maximum memory used throughout the entire PROP-calculation: 24.1 MB

--------------------------------
SUGGESTED CITATIONS FOR THIS RUN
--------------------------------

Below you find a list of papers that are relevant to this ORCA run
We neither can nor want to force you to cite these papers, but we appreciate if you do
You receive ORCA, which is the product of decades of hard work by many enthusiastic individuals, for free
The only thing we kindly ask in return is that you cite our papers,
We deeply appreciate it, if you show your appreciation for ORCA by not just citing the generic ORCA reference.

Please note that relegating all ORCA citations to the supporting information does *not* help us.
SI sections are not indexed - citations you put there will not count into any citation statistics
But we need these citations in order to attract the funding resources that allow us to do what we are doing

Therefore, if you are a happy ORCA user, please consider citing a few of the papers listed below in the main body of your paper

In addition to the list printed below, the program has created the file hc_c24h14_0pent_10_dz_ri.bibtex that contains the list in bibtex format
You can import this file easily into all common literature databanks and citation aid programs


List of essential papers. We consider these as the minimum necessary citations

  1. Neese,F.
     Software update: the ORCA program system, version 5.0
     WIRES Comput. Molec. Sci., 2022 12(1)e1606
     doi.org/10.1002/wcms.1606

List of papers to cite with high priority. The work reported in these papers was absolutely
necessary for this run to complete.
Our perspective: the developers of density functionals and basis sets usually get cited in chemistry papers
Good! But without the algorithms to do something with them, the functionals or basis sets would not do anything.
Hence, in our opinion, the algorithm design and method developments papers are equally worthy of getting cited

  1. Neese,F.
     An improvement of the resolution of the identity approximation for the formation of the Coulomb matrix
     J. Comp. Chem., 2003 24(14)1740-1747
     doi.org/10.1002/jcc.10318
  2. Neese,F.; Wennmohs,F.; Hansen,A.; Becker,U.
     Efficient, approximate and parallel Hartree-Fock and hybrid DFT calculations. A 'chain-of-spheres' algorithm for the Hartree-Fock exchange
     Chem. Phys., 2009 356(1-3)98-109
     doi.org/10.1016/j.chemphys.2008.10.036
  3. Kossmann,S.; Neese,F.
     Efficient Structure Optimization with Second-Order Many-Body Perturbation Theory: The RIJCOSX-MP2 Method
     J. Theo. Comp. Chem., 2010 6 2325-2338
     doi.org/10.1021/ct100199k
  4. Helmich-Paris,B.; de Souza,B.; Neese,F.; Izsák,R.
     An improved chain of spheres for exchange algorithm
     J. Chem. Phys., 2021 155 104109
     doi.org/doi: 10.1063/5.0058766.
  5. Neese,F.
     The SHARK Integral Generation and Digestion System
     J. Comp. Chem., 2022  1-16
     doi.org/10.1002/jcc.26942
  6. Caldeweyher,E.; Bannwarth,C.; Grimme,S.
     Extension of the D3 dispersion coefficient model
     J. Chem. Phys., 2017 147 034112
     doi.org/10.1063/1.4993215
  7. Caldeweyher,E.; Ehlert,S.; Hansen,A.; Neugebauer,H.; Spicher,S.; Bannwarth,C.; Grimme,S.
     A generally applicable atomic-charge dependent London dispersion correction
     J. Chem. Phys., 2019 150 154122
     doi.org/10.1063/1.5090222
  8. Caldeweyher,E.; Mewes,J.; Ehlert,S.; Grimme,S.
     Extension and evaluation of the D4 London-dispersion model for periodic systems
     Phys. Chem. Chem. Phys., 2020 22(16)8499-8512
     doi.org/10.1039/D0CP00502A
  9. Wittmann,L.; Gordiy,I.; Friede,M.; Helmich-Paris,B.; Grimme,S.; Hansen,A.; Bursch,M.
     Extension of the D3 and D4 London Dispersion Corrections to the full Actinides Series
     Phys. Chem. Chem. Phys., 2024 26(32)21379-21394
     doi.org/https://doi.org/10.1039/D4CP01514B 

List of suggested additional citations. These are papers that are important in the 'surrounding' of 
of this run, or papers that preceded the highly important papers. If you like your results we are grateful for a citation.

  1. Izsak,R.; Neese,F.
     An overlap fitted chain of spheres exchange method
     J. Chem. Phys., 2011 135 144105
     doi.org/10.1063/1.3646921
  2. Izsak,R.; Hansen,A.; Neese,F.
     The resolution of identity and chain of spheres approximations for the LPNO-CCSD singles Fock term
     Molec. Phys., 2012 110 2413-2417
     doi.org/10.1080/00268976.2012.687466
  3. Neese,F.
     The ORCA program system
     WIRES Comput. Molec. Sci., 2012 2(1)73-78
     doi.org/10.1002/wcms.81
  4. Izsak,R.; Neese,F.; Klopper,W.
     Robust fitting techniques in the chain of spheres approximation to the Fock exchange: The role of the complementary space
     J. Chem. Phys., 2013 139 
     doi.org/10.1063/1.4819264
  5. Neese,F.
     Software update: the ORCA program system, version 4.0
     WIRES Comput. Molec. Sci., 2018 8(1)1-6
     doi.org/10.1002/wcms.1327
  6. Neese,F.; Wennmohs,F.; Becker,U.; Riplinger,C.
     The ORCA quantum chemistry program package
     J. Chem. Phys., 2020 152 Art. No. L224108
     doi.org/10.1063/5.0004608

List of optional additional citations

  1. Neese,F.
     Approximate second-order SCF convergence for spin unrestricted wavefunctions
     Chem. Phys. Lett., 2000 325(1-3)93-98
     doi.org/10.1016/s0009-2614(00)00662-x

Timings for individual modules:

Sum of individual times          ...      122.830 sec (=   2.047 min)
Startup calculation              ...       30.050 sec (=   0.501 min)  24.5 %
SCF iterations                   ...       57.405 sec (=   0.957 min)  46.7 %
Property calculations            ...       15.921 sec (=   0.265 min)  13.0 %
MP2 module                       ...       19.453 sec (=   0.324 min)  15.8 %
                             ****ORCA TERMINATED NORMALLY****
TOTAL RUN TIME: 0 days 0 hours 2 minutes 29 seconds 176 msec
