
                                 *****************
                                 * O   R   C   A *
                                 *****************

                                            #,                                       
                                            ###                                      
                                            ####                                     
                                            #####                                    
                                            ######                                   
                                           ########,                                 
                                     ,,################,,,,,                         
                               ,,#################################,,                 
                          ,,##########################################,,             
                       ,#########################################, ''#####,          
                    ,#############################################,,   '####,        
                  ,##################################################,,,,####,       
                ,###########''''           ''''###############################       
              ,#####''   ,,,,##########,,,,          '''####'''          '####       
            ,##' ,,,,###########################,,,                        '##       
           ' ,,###''''                  '''############,,,                           
         ,,##''                                '''############,,,,        ,,,,,,###''
      ,#''                                            '''#######################'''  
     '                                                          ''''####''''         
             ,#######,   #######,   ,#######,      ##                                
            ,#'     '#,  ##    ##  ,#'     '#,    #''#        ,####,   ,####,        
            ##       ##  ##   ,#'  ##            #'  '#       #'       #'  '#        
            ##       ##  #######   ##           ,######,      #####,   #    #        
            '#,     ,#'  ##    ##  '#,     ,#' ,#      #,     #,   #   #,  ,#        
             '#######'   ##     ##  '#######'  #'      '#     '####' # '####'        



                #########################################################
                #                        -***-                          #
                #          Department of theory and spectroscopy        #
                #                                                       #
                #                      Frank Neese                      #
                #                                                       #
                #     Directorship, Architecture, Infrastructure        #
                #                    SHARK, DRIVERS                     #
                #        Core code/Algorithms in most modules           #
                #                                                       #
                #        Max Planck Institute fuer Kohlenforschung      #
                #                Kaiser Wilhelm Platz 1                 #
                #                 D-45470 Muelheim/Ruhr                 #
                #                      Germany                          #
                #                                                       #
                #                  All rights reserved                  #
                #                        -***-                          #
                #########################################################


                         Program Version 6.0.1  -  RELEASE   -


 With contributions from (in alphabetic order):
[Max-Planck-Institut fuer Kohlenforschung]                               
  Daniel Aravena         : Magnetic Suceptibility                        
  Michael Atanasov       : Ab Initio Ligand Field Theory (pilot matlab implementation)
  Alexander A. Auer      : GIAO ZORA, VPT2 properties, NMR spectrum      
  Ute Becker             : All parallelization in ORCA, NUMFREQ, NUMCALC 
  Giovanni Bistoni       : ED, misc. LED, open-shell LED, HFLD           
  Martin Brehm           : Molecular dynamics                            
  Dmytro Bykov           : pre 5.0 version of the SCF Hessian            
  Marcos Casanova-Páez   : Triplet and SCS-CIS(D). UHF-(DLPNO)-IP/EA/STEOM-CCSD. UHF-CVS-IP/STEOM-CCSD   
  Vijay G. Chilkuri      : MRCI spin determinant printing, contributions to CSF-ICE 
  Pauline Colinet        : FMM embedding                                 
  Dipayan Datta          : RHF DLPNO-CCSD density                        
  Achintya Kumar Dutta   : EOM-CC, STEOM-CC                              
  Nicolas Foglia         : Exact transition moments, OPA infrastructure, MCD improvements    
  Dmitry Ganyushin       : Spin-Orbit,Spin-Spin,Magnetic field MRCI      
  Miquel Garcia-Rates    : C-PCM and meta-GGA Hessian, CCSD/C-PCM, Gaussian charge scheme 
  Tiago L. C. Gouveia    : GS-ROHF, GS-ROCIS                             
  Yang Guo               : DLPNO-NEVPT2, F12-NEVPT2, CIM, IAO-localization        
  Andreas Hansen         : Spin unrestricted coupled pair/coupled cluster methods 
  Ingolf Harden          : AUTO-CI MPn and infrastructure                
  Benjamin Helmich-Paris : MC-RPA, TRAH-(SCF,CASSCF), AVAS, COSX integrals, SCF dyn. polar. 
  Lee Huntington         : MR-EOM, pCC                                   
  Robert Izsak           : Overlap fitted RIJCOSX, COSX-SCS-MP3, EOM     
  Riya Kayal             : Wick's Theorem for AUTO-CI, AUTO-CI UHF-CCSDT 
  Emily Kempfer          : AUTO-CI, RHF CISDT and CCSDT                  
  Christian Kollmar      : KDIIS, OOCD, Brueckner-CCSD(T), CCSD density, CASPT2, CASPT2-K, improved NEVPT2 
  Axel Koslowski         : Symmetry handling                             
  Simone Kossmann        : meta-GGA functionals, TD-DFT gradient, OOMP2, (MP2 Hessian; deprecated post 5.0) 
  Lucas Lang             : DCDCAS                                        
  Marvin Lechner         : AUTO-CI (C++ implementation), FIC-MRCC        
  Spencer Leger          : CASSCF response                               
  Dagmar Lenk            : GEPOL surface, SMD, ORCA-2-JSON               
  Dimitrios Liakos       : Extrapolation schemes; Compound Job, initial MDCI parallelization 
  Dimitrios Manganas     : Further ROCIS development; embedding schemes. LFT, Crystal Embedding 
  Dimitrios Pantazis     : SARC Basis sets                               
  Anastasios Papadopoulos: AUTO-CI, single reference methods and gradients 
  Taras Petrenko         : pre 6.0 DFT Hessian and TD-DFT gradient, (ASA, deprecated), ECA, 1-Electron XAS/XES, NRVS 
  Peter Pinski           : DLPNO-MP2, DLPNO-MP2 Gradient                 
  Christoph Reimann      : Effective Core Potentials                     
  Marius Retegan         : Local ZFS, SOC                                
  Christoph Riplinger    : Optimizer, TS searches, QM/MM, DLPNO-CCSD(T), (RO)-DLPNO pert. Triples 
  Michael Roemelt        : Original ROCIS implementation                 
  Masaaki Saitow         : Open-shell DLPNO-CCSD energy and density      
  Barbara Sandhoefer     : DKH picture change effects                    
  Kantharuban Sivalingam : CASSCF convergence/infrastructure, NEVPT2 and variants, FIC-MRCI 
  Bernardo de Souza      : ESD, SOC TD-DFT                               
  Georgi L. Stoychev     : AutoAux, RI-MP2 NMR, DLPNO-MP2 response, X2C  
  Van Anh Tran           : RI-MP2 g-tensors                              
  Willem Van den Heuvel  : Paramagnetic NMR                              
  Zikuan Wang            : NOTCH, Electric field optimization            
  Frank Wennmohs         : Technical directorship and infrastructure     
  Hang Xu                : AUTO-CI-Response properties                   
                                                                         
[FACCTs GmbH]                                                            
  Markus Bursch, Miquel Garcia-Rates, Christoph Riplinger, Bernardo de Souza, Georgi L. Stoychev 
                                                                 
  APM, Basis sets (HGBS, AHGBS, def-TZVP (Ac-Lr), def2-XVPD (La-Lu)), CI-OPT, improved COSX, DLPNO-Multilevel,           
  DOCKER, DRACO, updates on ESD, GOAT, IRC, LR-CPCM, MBIS, meta-GGA TD-DFT gradient, ML-optimized integration grids, 
  MM, NACMEs, nearIR, NEB, NEB-TS, NL-DFT gradient (VV10), 2- and 3-layer-ONIOM, interface openCOSMO-RS, QMMM,   
  Crystal-QMMM, SF, symmetry and pop. for TD-DFT, r2SCAN hybrids, SOLVATOR                                   
                                                                         
[Other institutions]                                                     
  V. Asgeirsson          : NEB                                           
  Christoph Bannwarth    : sTDA-DFT, sTD-DFT, PBEh-3c, B97-3c, D3        
  Sebastian Ehlert       : rSCAN, r2SCAN, r2SCAN-3c, D4, dhf basis sets  
  Marvin Friede          : D4 for Fr, Ra, Ac-Lr                          
  Lars Goerigk           : TD-DFT with DH, B97 family of functionals     
  Stefan Grimme          : VdW corrections, initial TS optimization, DFT functionals, gCP, sTDA/sTD-DF 
  Waldemar Hujo          : DFT-NL                                        
  H. Jonsson             : NEB                                           
  Holger Kruse           : gCP                                           
  Marcel Mueller         : wB97X-3c, vDZP basis set                      
  Hagen Neugebauer       : wr2SCAN                                       
  Tobias Risthaus        : range-separated hybrid DFT                    
  Lukas Wittmann         : regularized MP2, r2SCAN double-hybrids, wr2SCAN        
                                                                         
We gratefully acknowledge several colleagues who have allowed us to      
interface, adapt or use parts of their codes:                            
  Ed Valeev, F. Pavosevic, A. Kumar             : LibInt (2-el integral package), F12 methods 
  Garnet Chan, S. Sharma, J. Yang, R. Olivares  : DMRG                   
  Ulf Ekstrom                                   : XCFun DFT Library      
  Mihaly Kallay                                 : mrcc  (arbitrary order and MRCC methods)
  Frank Weinhold                                : gennbo (NPA and NBO analysis)           
  Simon Mueller                                 : openCOSMO-RS                            
  Christopher J. Cramer and Donald G. Truhlar   : smd solvation model                     
  S Lehtola, MJT Oliveira, MAL Marques          : LibXC Library                           
  Liviu Ungur et al                             : ANISO software                          


 Your calculation uses the libint2 library for the computation of 2-el integrals
 For citations please refer to: http://libint.valeyev.net

 Your ORCA version has been built with support for libXC version: 6.2.2
 For citations please refer to: https://libxc.gitlab.io

 This ORCA versions uses:
   CBLAS   interface :  Fast vector & matrix operations
   LAPACKE interface :  Fast linear algebra routines
   SCALAPACK package :  Parallel linear algebra routines
   Shared memory     :  Shared parallel matrices
   BLAS/LAPACK       :  OpenBLAS 0.3.27  USE64BITINT DYNAMIC_ARCH NO_AFFINITY SapphireRapids SINGLE_THREADED
        Core in use  :  SapphireRapids
   Copyright (c) 2011-2014, The OpenBLAS Project




***************************************
The coordinates will be read from file: /scratch/kx58/rs2200/dhdft/inputs/compas3x-xyzs/hc_c24h14_0pent_3.xyz
***************************************


Your calculation utilizes the atom-pairwise dispersion correction
based on EEQ partial charges (D4)


Warning: RI is on but no J-basis has been assigned. Assigning Def2/J (nothing to worry about!)
================================================================================

----- Orbital basis set information -----
Your calculation utilizes the basis: def2-QZVPP
   F. Weigend and R. Ahlrichs, Phys. Chem. Chem. Phys. 7, 3297 (2005).

----- AuxJ basis set information -----
Your calculation utilizes the auxiliary basis: def2/J
   F. Weigend, Phys. Chem. Chem. Phys. 8, 1057 (2006).

----- AuxC basis set information -----
Your calculation utilizes the auxiliary basis: def2-QZVPP/C
  H-La, Hf-Rn : A. Hellweg, C. Hattig, S. Hofener and W. Klopper, Theor. Chem. Acc. 117, 587 (2007).
        Ce-Lu : J. Chmela and M. E. Harding, Mol. Phys. (2018).

================================================================================
                                        WARNINGS
                       Please study these warnings very carefully!
================================================================================


WARNING: No MP2 level density has been requested!
         To calculate MP2 level properties use
         %mp2 Density relaxed end
         or
         %mp2 Density unrelaxed end
         Otherwise for double-hybrid DFT only the energy is correct!

================================================================================
                                       INPUT FILE
================================================================================
NAME = hc_c24h14_0pent_3_qz_ri.inp
|  1> ! RKS revDSD-PBEP86-D4/2021 defgrid3  NOPOP NoFrozencore NoUseSym
|  2> 
|  3> %basis
|  4>   Basis "def2-QZVPP"
|  5>   
|  6>   AuxC "def2-QZVPP/C"
|  7> end
|  8> 
|  9> %method
| 10>   ScalHFX 0.69
| 11>   ScalDFX 0.31
| 12>   ScalDFC 0.4038
| 13>   ScalLDAC 0.4038
| 14> 
| 15>   D4S6 0.4612
| 16>   D4S8 0.0
| 17>   D4A1 0.44
| 18>   D4A2 3.60
| 19> end
| 20> 
| 21> %mp2
| 22>   PS 0.5979
| 23>   PT 0.0571
| 24> end
| 25> 
| 26> %pal
| 27>     nprocs 104
| 28> end
| 29> 
| 30> *XYZFILE 0 1 /scratch/kx58/rs2200/dhdft/inputs/compas3x-xyzs/hc_c24h14_0pent_3.xyz
| 31> 
| 32>                          ****END OF INPUT****
================================================================================

                       ****************************
                       * Single Point Calculation *
                       ****************************

---------------------------------
CARTESIAN COORDINATES (ANGSTROEM)
---------------------------------
  C      1.732563   -0.719903   -0.487950
  C      0.830613   -1.803951   -0.351062
  C     -0.561599   -1.561928   -0.212120
  C     -1.048764   -0.236491   -0.102548
  C     -0.101624    0.848300    0.022661
  C      1.232089    0.632415   -0.344866
  C      3.082037   -1.008159   -0.682974
  C      3.541812   -2.314151   -0.734622
  C      2.668152   -3.371885   -0.608608
  C      1.303739   -3.136854   -0.425989
  C      0.370789   -4.211252   -0.343473
  C     -0.958222   -3.977655   -0.267398
  C     -1.469984   -2.648249   -0.230666
  C     -2.843515   -2.393872   -0.239101
  C     -3.305424   -1.096365   -0.293877
  C     -2.422610   -0.030154   -0.229771
  C     -0.486952    2.144217    0.499115
  C      0.364770    3.251168    0.254715
  C      1.624989    3.023404   -0.344445
  C      2.068549    1.756475   -0.555679
  C     -1.627560    2.365160    1.297064
  C     -1.972706    3.625348    1.710481
  C     -1.194636    4.731117    1.350859
  C     -0.031600    4.540014    0.656106
  H      3.803680   -0.212945   -0.779746
  H      4.596796   -2.499353   -0.876768
  H      3.027122   -4.389644   -0.661361
  H      0.755690   -5.220877   -0.372622
  H     -1.664944   -4.795110   -0.241482
  H     -3.535010   -3.224074   -0.247770
  H     -4.364627   -0.903185   -0.384394
  H     -2.807977    0.972973   -0.324324
  H      2.252356    3.872472   -0.575110
  H      3.066621    1.610980   -0.936345
  H     -2.205477    1.521010    1.640400
  H     -2.844752    3.767632    2.332112
  H     -1.493425    5.721693    1.660771
  H      0.618041    5.373679    0.429787

----------------------------
CARTESIAN COORDINATES (A.U.)
----------------------------
  NO LB      ZA    FRAG     MASS         X           Y           Z
   0 C     6.0000    0    12.011    3.274069   -1.360420   -0.922091
   1 C     6.0000    0    12.011    1.569631   -3.408973   -0.663411
   2 C     6.0000    0    12.011   -1.061269   -2.951616   -0.400849
   3 C     6.0000    0    12.011   -1.981877   -0.446904   -0.193789
   4 C     6.0000    0    12.011   -0.192041    1.603054    0.042822
   5 C     6.0000    0    12.011    2.328311    1.195091   -0.651702
   6 C     6.0000    0    12.011    5.824206   -1.905144   -1.290634
   7 C     6.0000    0    12.011    6.693055   -4.373112   -1.388234
   8 C     6.0000    0    12.011    5.042077   -6.371940   -1.150103
   9 C     6.0000    0    12.011    2.463710   -5.927794   -0.805002
  10 C     6.0000    0    12.011    0.700689   -7.958113   -0.649069
  11 C     6.0000    0    12.011   -1.810776   -7.516678   -0.505309
  12 C     6.0000    0    12.011   -2.777867   -5.004465   -0.435896
  13 C     6.0000    0    12.011   -5.373465   -4.523762   -0.451835
  14 C     6.0000    0    12.011   -6.246347   -2.071830   -0.555346
  15 C     6.0000    0    12.011   -4.578069   -0.056984   -0.434203
  16 C     6.0000    0    12.011   -0.920206    4.051983    0.943191
  17 C     6.0000    0    12.011    0.689315    6.143817    0.481342
  18 C     6.0000    0    12.011    3.070784    5.713405   -0.650907
  19 C     6.0000    0    12.011    3.908991    3.319256   -1.050081
  20 C     6.0000    0    12.011   -3.075642    4.469505    2.451096
  21 C     6.0000    0    12.011   -3.727874    6.850914    3.232341
  22 C     6.0000    0    12.011   -2.257534    8.940516    2.552753
  23 C     6.0000    0    12.011   -0.059716    8.579384    1.239860
  24 H     1.0000    0     1.008    7.187914   -0.402407   -1.473506
  25 H     1.0000    0     1.008    8.686686   -4.723092   -1.656852
  26 H     1.0000    0     1.008    5.720431   -8.295226   -1.249792
  27 H     1.0000    0     1.008    1.428047   -9.866027   -0.704154
  28 H     1.0000    0     1.008   -3.146288   -9.061446   -0.456335
  29 H     1.0000    0     1.008   -6.680201   -6.092617   -0.468218
  30 H     1.0000    0     1.008   -8.247949   -1.706773   -0.726400
  31 H     1.0000    0     1.008   -5.306308    1.838653   -0.612884
  32 H     1.0000    0     1.008    4.256335    7.317912   -1.086800
  33 H     1.0000    0     1.008    5.795074    3.044311   -1.769435
  34 H     1.0000    0     1.008   -4.167748    2.874293    3.099906
  35 H     1.0000    0     1.008   -5.375802    7.119793    4.407053
  36 H     1.0000    0     1.008   -2.822164   10.812432    3.138402
  37 H     1.0000    0     1.008    1.167928   10.154781    0.812180

--------------------------------
INTERNAL COORDINATES (ANGSTROEM)
--------------------------------
 C      0   0   0     0.000000000000     0.00000000     0.00000000
 C      1   0   0     1.416831319120     0.00000000     0.00000000
 C      2   1   0     1.419906567789   120.21320679     0.00000000
 C      3   2   1     1.416374831827   120.28621261   354.97433993
 C      4   3   2     1.445518575895   118.92099233   352.84873569
 C      5   4   3     1.400168551576   119.05717088    18.13904433
 C      1   2   3     1.393630645888   118.14410784   182.89113591
 C      7   1   2     1.385524348491   121.43352872   359.58692453
 C      8   7   1     1.377665759437   120.65387595     0.74105776
 C      9   8   7     1.396500094899   120.15450896   359.96790829
 C     10   9   8     1.425319983298   121.34715208   177.59085796
 C     11  10   9     1.351526260611   121.10604187   185.01130871
 C      3   2   1     1.416192134641   119.79431586   172.74432355
 C     13   3   2     1.396913575006   119.41202419   186.88161874
 C     14  13   3     1.378362331666   120.07694517     3.09795472
 C     15  14  13     1.385740483530   120.59400250   354.64698416
 C      5   4   3     1.433488308015   122.07933575   197.49990064
 C     17   5   4     1.417921648478   119.14409186   197.47872709
 C     18  17   5     1.413867647172   118.86098201   354.31174473
 C     19  18  17     1.358850672159   120.46563541   353.31030576
 C     17   5   4     1.409441088228   123.19026237    22.66904927
 C     21  17   5     1.370442139140   121.24831539   181.21654476
 C     22  21  17     1.399088338054   120.60813240   359.85713461
 C     23  22  21     1.368157105485   119.53001845   355.61691195
 H      7   1   2     1.078192212860   120.53802466   180.75598103
 H      8   7   1     1.080507252735   119.37153746   180.65075515
 H      9   8   7     1.080497793379   120.53349511   179.24256936
 H     11  10   9     1.080898100726   117.99831723     3.25810774
 H     12  11  10     1.080907932312   120.90171738   177.73862247
 H     14  13   3     1.080498314682   119.30099207   180.33330108
 H     15  14  13     1.080473085680   120.00996070   174.84515013
 H     16  15  14     1.078755532969   118.93632111   176.98995387
 H     19  18  17     1.080607707372   118.77418507   176.99119364
 H     20  19  18     1.078064593520   118.87641382   185.15122771
 H     21  17   5     1.079099987114   119.40012684     5.07780724
 H     22  21  17     1.080339453066   119.86648055   180.77636775
 H     23  22  21     1.080074422116   119.81882392   178.31282460
 H     24  23  22     1.080856273362   120.63217173   184.33367851

---------------------------
INTERNAL COORDINATES (A.U.)
---------------------------
 C      0   0   0     0.000000000000     0.00000000     0.00000000
 C      1   0   0     2.677423171099     0.00000000     0.00000000
 C      2   1   0     2.683234548877   120.21320679     0.00000000
 C      3   2   1     2.676560535133   120.28621261   354.97433993
 C      4   3   2     2.731634229937   118.92099233   352.84873569
 C      5   4   3     2.645935103807   119.05717088    18.13904433
 C      1   2   3     2.633580252568   118.14410784   182.89113591
 C      7   1   2     2.618261570527   121.43352872   359.58692453
 C      8   7   1     2.603410989416   120.65387595     0.74105776
 C      9   8   7     2.639002725355   120.15450896   359.96790829
 C     10   9   8     2.693464421639   121.34715208   177.59085796
 C     11  10   9     2.554014495357   121.10604187   185.01130871
 C      3   2   1     2.676215287484   119.79431586   172.74432355
 C     13   3   2     2.639784089518   119.41202419   186.88161874
 C     14  13   3     2.604727320161   120.07694517     3.09795472
 C     15  14  13     2.618670006560   120.59400250   354.64698416
 C      5   4   3     2.708900318326   122.07933575   197.49990064
 C     17   5   4     2.679483594982   119.14409186   197.47872709
 C     18  17   5     2.671822642766   118.86098201   354.31174473
 C     19  18  17     2.567855627275   120.46563541   353.31030576
 C     17   5   4     2.663457658647   123.19026237    22.66904927
 C     21  17   5     2.589760325359   121.24831539   181.21654476
 C     22  21  17     2.643893796085   120.60813240   359.85713461
 C     23  22  21     2.585442237544   119.53001845   355.61691195
 H      7   1   2     2.037488002032   120.53802466   180.75598103
 H      8   7   1     2.041862793385   119.37153746   180.65075515
 H      9   8   7     2.041844917792   120.53349511   179.24256936
 H     11  10   9     2.042601389048   117.99831723     3.25810774
 H     12  11  10     2.042619968053   120.90171738   177.73862247
 H     14  13   3     2.041845902913   119.30099207   180.33330108
 H     15  14  13     2.041798227008   120.00996070   174.84515013
 H     16  15  14     2.038552522764   118.93632111   176.98995387
 H     19  18  17     2.042052625138   118.77418507   176.99119364
 H     20  19  18     2.037246836430   118.87641382   185.15122771
 H     21  17   5     2.039203446764   119.40012684     5.07780724
 H     22  21  17     2.041545697964   119.86648055   180.77636775
 H     23  22  21     2.041044862052   119.81882392   178.31282460
 H     24  23  22     2.042522346785   120.63217173   184.33367851

---------------------
BASIS SET INFORMATION
---------------------
There are 2 groups of distinct atoms

 Group   1 Type C   : 15s8p3d2f1g contracted to 7s4p3d2f1g pattern {8211111/5111/111/11/1}
 Group   2 Type H   : 7s3p2d1f contracted to 4s3p2d1f pattern {4111/111/11/1}

Atom   0C    basis set group =>   1
Atom   1C    basis set group =>   1
Atom   2C    basis set group =>   1
Atom   3C    basis set group =>   1
Atom   4C    basis set group =>   1
Atom   5C    basis set group =>   1
Atom   6C    basis set group =>   1
Atom   7C    basis set group =>   1
Atom   8C    basis set group =>   1
Atom   9C    basis set group =>   1
Atom  10C    basis set group =>   1
Atom  11C    basis set group =>   1
Atom  12C    basis set group =>   1
Atom  13C    basis set group =>   1
Atom  14C    basis set group =>   1
Atom  15C    basis set group =>   1
Atom  16C    basis set group =>   1
Atom  17C    basis set group =>   1
Atom  18C    basis set group =>   1
Atom  19C    basis set group =>   1
Atom  20C    basis set group =>   1
Atom  21C    basis set group =>   1
Atom  22C    basis set group =>   1
Atom  23C    basis set group =>   1
Atom  24H    basis set group =>   2
Atom  25H    basis set group =>   2
Atom  26H    basis set group =>   2
Atom  27H    basis set group =>   2
Atom  28H    basis set group =>   2
Atom  29H    basis set group =>   2
Atom  30H    basis set group =>   2
Atom  31H    basis set group =>   2
Atom  32H    basis set group =>   2
Atom  33H    basis set group =>   2
Atom  34H    basis set group =>   2
Atom  35H    basis set group =>   2
Atom  36H    basis set group =>   2
Atom  37H    basis set group =>   2
---------------------------------
AUXILIARY/J BASIS SET INFORMATION
---------------------------------
There are 2 groups of distinct atoms

 Group   1 Type C   : 12s5p4d2f1g contracted to 6s4p3d1f1g pattern {711111/2111/211/2/1}
 Group   2 Type H   : 5s2p1d contracted to 3s1p1d pattern {311/2/1}

Atom   0C    basis set group =>   1
Atom   1C    basis set group =>   1
Atom   2C    basis set group =>   1
Atom   3C    basis set group =>   1
Atom   4C    basis set group =>   1
Atom   5C    basis set group =>   1
Atom   6C    basis set group =>   1
Atom   7C    basis set group =>   1
Atom   8C    basis set group =>   1
Atom   9C    basis set group =>   1
Atom  10C    basis set group =>   1
Atom  11C    basis set group =>   1
Atom  12C    basis set group =>   1
Atom  13C    basis set group =>   1
Atom  14C    basis set group =>   1
Atom  15C    basis set group =>   1
Atom  16C    basis set group =>   1
Atom  17C    basis set group =>   1
Atom  18C    basis set group =>   1
Atom  19C    basis set group =>   1
Atom  20C    basis set group =>   1
Atom  21C    basis set group =>   1
Atom  22C    basis set group =>   1
Atom  23C    basis set group =>   1
Atom  24H    basis set group =>   2
Atom  25H    basis set group =>   2
Atom  26H    basis set group =>   2
Atom  27H    basis set group =>   2
Atom  28H    basis set group =>   2
Atom  29H    basis set group =>   2
Atom  30H    basis set group =>   2
Atom  31H    basis set group =>   2
Atom  32H    basis set group =>   2
Atom  33H    basis set group =>   2
Atom  34H    basis set group =>   2
Atom  35H    basis set group =>   2
Atom  36H    basis set group =>   2
Atom  37H    basis set group =>   2
---------------------------------
AUXILIARY/C BASIS SET INFORMATION
---------------------------------
There are 2 groups of distinct atoms

 Group   1 Type C   : 9s8p7d5f3g1h contracted to 9s8p7d5f3g1h pattern {111111111/11111111/1111111/11111/111/1}
 Group   2 Type H   : 6s4p3d2f1g contracted to 6s4p3d2f1g pattern {111111/1111/111/11/1}

Atom   0C    basis set group =>   1
Atom   1C    basis set group =>   1
Atom   2C    basis set group =>   1
Atom   3C    basis set group =>   1
Atom   4C    basis set group =>   1
Atom   5C    basis set group =>   1
Atom   6C    basis set group =>   1
Atom   7C    basis set group =>   1
Atom   8C    basis set group =>   1
Atom   9C    basis set group =>   1
Atom  10C    basis set group =>   1
Atom  11C    basis set group =>   1
Atom  12C    basis set group =>   1
Atom  13C    basis set group =>   1
Atom  14C    basis set group =>   1
Atom  15C    basis set group =>   1
Atom  16C    basis set group =>   1
Atom  17C    basis set group =>   1
Atom  18C    basis set group =>   1
Atom  19C    basis set group =>   1
Atom  20C    basis set group =>   1
Atom  21C    basis set group =>   1
Atom  22C    basis set group =>   1
Atom  23C    basis set group =>   1
Atom  24H    basis set group =>   2
Atom  25H    basis set group =>   2
Atom  26H    basis set group =>   2
Atom  27H    basis set group =>   2
Atom  28H    basis set group =>   2
Atom  29H    basis set group =>   2
Atom  30H    basis set group =>   2
Atom  31H    basis set group =>   2
Atom  32H    basis set group =>   2
Atom  33H    basis set group =>   2
Atom  34H    basis set group =>   2
Atom  35H    basis set group =>   2
Atom  36H    basis set group =>   2
Atom  37H    basis set group =>   2


           ************************************************************
           *        Program running with 104 parallel MPI-processes   *
           *              working on a common directory               *
           ************************************************************
------------------------------------------------------------------------------
                             ORCA STARTUP CALCULATIONS
                           -- RI-GTO INTEGRALS CHOSEN --
------------------------------------------------------------------------------
------------------------------------------------------------------------------
                   ___                                                        
                  /   \      - P O W E R E D   B Y -                         
                 /     \                                                     
                 |  |  |   _    _      __       _____    __    __             
                 |  |  |  | |  | |    /  \     |  _  \  |  |  /  |          
                  \  \/   | |  | |   /    \    | | | |  |  | /  /          
                 / \  \   | |__| |  /  /\  \   | |_| |  |  |/  /          
                |  |  |   |  __  | /  /__\  \  |    /   |      \           
                |  |  |   | |  | | |   __   |  |    \   |  |\   \          
                \     /   | |  | | |  |  |  |  | |\  \  |  | \   \       
                 \___/    |_|  |_| |__|  |__|  |_| \__\ |__|  \__/        
                                                                              
                      - O R C A' S   B I G   F R I E N D -                    
                                      &                                       
                       - I N T E G R A L  F E E D E R -                       
                                                                              
 v1 FN, 2020, v2 2021, v3 2022-2024                                           
------------------------------------------------------------------------------


----------------------
SHARK INTEGRAL PACKAGE
----------------------

Number of atoms                             ...     38
Number of basis functions                   ...   1788
Number of shells                            ...    548
Maximum angular momentum                    ...      4
Integral batch strategy                     ... SHARK/LIBINT Hybrid
RI-J (if used) integral strategy            ... SPLIT-RIJ (Revised 2003 algorithm where possible)
Printlevel                                  ...      1
Contraction scheme used                     ... SEGMENTED contraction
Prescreening option                         ... SCHWARTZ
   Thresh                                   ... 1.000e-10
   Tcut                                     ... 1.000e-11
   Tpresel                                  ... 1.000e-11 
Coulomb Range Separation                    ... NOT USED
Exchange Range Separation                   ... NOT USED
Multipole approximations                    ... NOT USED
Finite Nucleus Model                        ... NOT USED
CABS basis                                  ... NOT available
Auxiliary Coulomb fitting basis             ... AVAILABLE
   # of basis functions in Aux-J            ...   1330
   # of shells in Aux-J                     ...    430
   Maximum angular momentum in Aux-J        ...      4
Auxiliary J/K fitting basis                 ... NOT available
Auxiliary Correlation fitting basis         ... AVAILABLE
   # of basis functions in Aux-C            ...   4168
   # of shells in Aux-C                     ...   1016
   Maximum angular momentum in Aux-C        ...      5
Auxiliary 'external' fitting basis          ... NOT available

Checking pre-screening integrals            ... done (  0.0 sec) Dimension = 548
Check shell pair data                       ... done (  0.0 sec)
Shell pair information
Shell pair cut-off parameter TPreSel        ...   1.0e-11
Total number of shell pairs                 ...    150426
Shell pairs after pre-screening             ...     92220
Total number of primitive shell pairs       ...    386901
Primitive shell pairs kept                  ...    163800
          la=0 lb=0:  14056 shell pairs
          la=1 lb=0:  20646 shell pairs
          la=1 lb=1:   7161 shell pairs
          la=2 lb=0:  12674 shell pairs
          la=2 lb=1:   9360 shell pairs
          la=2 lb=2:   3028 shell pairs
          la=3 lb=0:   7588 shell pairs
          la=3 lb=1:   5621 shell pairs
          la=3 lb=2:   3445 shell pairs
          la=3 lb=3:   1051 shell pairs
          la=4 lb=0:   2996 shell pairs
          la=4 lb=1:   2218 shell pairs
          la=4 lb=2:   1385 shell pairs
          la=4 lb=3:    812 shell pairs
          la=4 lb=4:    179 shell pairs

Calculating one electron integrals          ... done (  1.1 sec)
Calculating RI/J V-Matrix + Cholesky decomp.... done (  0.3 sec)
Calculating RI/C V-Matrix + Cholesky decomp.... done (  1.1 sec)
Calculating Nuclear repulsion               ... done (  0.0 sec) ENN=   1829.048436687932 Eh

Diagonalization of the overlap matrix:
Smallest eigenvalue                        ... 4.344e-07
Time for diagonalization                   ...    0.584 sec
Threshold for overlap eigenvalues          ... 1.000e-07
Number of eigenvalues below threshold      ... 0

IMPORTANT:
Smallest eigenvalue of S below the DiffSThresh (1.000e-06) while
Thresh>1e-12 and/or TCut>1e-13! In order to avoid SCF convergence issues,
Thresh will be set to at least 1e-12 and TCut to at least 1e-13.
This can be turned off by adding %SCF DiffSThresh -1 END to the input.

Time for construction of square roots      ...    0.474 sec
Total time needed                          ...    1.105 sec

-------------------
DFT GRID GENERATION
-------------------

General Integration Accuracy     IntAcc      ... 4.959
Radial Grid Type                 RadialGrid  ... OptM3 with GC (2021)
Angular Grid (max. ang.)         AngularGrid ... 6 (Lebedev-590)
Angular grid pruning method      GridPruning ... 4 (adaptive)
Weight generation scheme         WeightScheme... mBecke (2022)
Basis function cutoff            BFCut       ... 1.0000e-10
Integration weight cutoff        WCut        ... 1.0000e-14
Partially contracted basis set               ... off
Rotationally invariant grid construction     ... off
Angular grids for H and He will be reduced by one unit
Diffuse basis detected: some atoms will have their outermost
                        angular grid increased by 1.

Total number of grid points                  ...   467681
Total number of batches                      ...     7330
Average number of points per batch           ...       63
Average number of grid points per atom       ...    12307

--------------------
COSX GRID GENERATION
--------------------

GRIDX 1
-------
General Integration Accuracy     IntAcc      ... 4.020
Radial Grid Type                 RadialGrid  ... OptM3 with GC (2021)
Angular Grid (max. ang.)         AngularGrid ... 2 (Lebedev-110)
Angular grid pruning method      GridPruning ... 4 (adaptive)
Weight generation scheme         WeightScheme... mBecke (2022)
Basis function cutoff            BFCut       ... 1.0000e-10
Integration weight cutoff        WCut        ... 1.0000e-14
Partially contracted basis set               ... on
Rotationally invariant grid construction     ... off
Angular grids for H and He will be reduced by one unit
Diffuse basis detected: some atoms will have their outermost
                        angular grid increased by 1.

Total number of grid points                  ...    57880
Total number of batches                      ...      471
Average number of points per batch           ...      122
Average number of grid points per atom       ...     1523
UseSFitting                                  ... on

GRIDX 2
-------
General Integration Accuracy     IntAcc      ... 4.338
Radial Grid Type                 RadialGrid  ... OptM3 with GC (2021)
Angular Grid (max. ang.)         AngularGrid ... 3 (Lebedev-194)
Angular grid pruning method      GridPruning ... 4 (adaptive)
Weight generation scheme         WeightScheme... mBecke (2022)
Basis function cutoff            BFCut       ... 1.0000e-10
Integration weight cutoff        WCut        ... 1.0000e-14
Partially contracted basis set               ... on
Rotationally invariant grid construction     ... off
Angular grids for H and He will be reduced by one unit
Diffuse basis detected: some atoms will have their outermost
                        angular grid increased by 1.

Total number of grid points                  ...   124950
Total number of batches                      ...      996
Average number of points per batch           ...      125
Average number of grid points per atom       ...     3288
UseSFitting                                  ... on

GRIDX 3
-------
General Integration Accuracy     IntAcc      ... 4.871
Radial Grid Type                 RadialGrid  ... OptM3 with GC (2021)
Angular Grid (max. ang.)         AngularGrid ... 4 (Lebedev-302)
Angular grid pruning method      GridPruning ... 4 (adaptive)
Weight generation scheme         WeightScheme... mBecke (2022)
Basis function cutoff            BFCut       ... 1.0000e-10
Integration weight cutoff        WCut        ... 1.0000e-14
Partially contracted basis set               ... on
Rotationally invariant grid construction     ... off
Angular grids for H and He will be reduced by one unit
Diffuse basis detected: some atoms will have their outermost
                        angular grid increased by 1.

Total number of grid points                  ...   227788
Total number of batches                      ...     1797
Average number of points per batch           ...      126
Average number of grid points per atom       ...     5994
UseSFitting                                  ... on
Initializing property integral containers    ... done (  0.1 sec)

SHARK setup successfully completed in  17.3 seconds

Maximum memory used throughout the entire STARTUP-calculation: 222.9 MB


           ************************************************************
           *        Program running with 104 parallel MPI-processes   *
           *              working on a common directory               *
           ************************************************************
-------------------------------------------------------------------------------
                                 ORCA GUESS
                   Start orbitals & Density for SCF / CASSCF
-------------------------------------------------------------------------------

------------
SCF SETTINGS
------------
Hamiltonian:
 Density Functional     Method          .... DFT(GTOs)
 Exchange Functional    Exchange        .... PBE
   PBE kappa parameter   XKappa         ....  0.804000
   PBE mue parameter    XMuePBE         ....  0.219520
 Correlation Functional Correlation     .... P86
 LDA part of GGA corr.  LDAOpt          .... VWN-5
 Gradients option       PostSCFGGA      .... off
 Hybrid DFT is turned on
   Fraction HF Exchange ScalHFX         ....  0.690000
   Scaling of DF-GGA-X  ScalDFX         ....  0.310000
   Scaling of DF-GGA-C  ScalDFC         ....  0.403800
   Scaling of DF-LDA-C  ScalLDAC        ....  0.403800
   Perturbative correction              ....  1.000000
 RI-approximation to the Coulomb term is turned on
   Number of AuxJ basis functions       .... 1330
   RIJ-COSX (HFX calculated with COS-X)).... on


General Settings:
 Integral files         IntName         .... hc_c24h14_0pent_3_qz_ri
 Hartree-Fock type      HFTyp           .... RHF
 Total Charge           Charge          ....    0
 Multiplicity           Mult            ....    1
 Number of Electrons    NEL             ....  158
 Basis Dimension        Dim             .... 1788
 Nuclear Repulsion      ENuc            ....   1829.0484366879 Eh

Convergence Acceleration:
 AO-DIIS                CNVDIIS         .... on
   Start iteration      DIISMaxIt       ....    12
   Startup error        DIISStart       ....  0.200000
   # of expansion vecs  DIISMaxEq       ....     5
   Bias factor          DIISBfac        ....   1.050
   Max. coefficient     DIISMaxC        ....  10.000
 MO-DIIS                CNVKDIIS        .... off
 Trust-Rad. Augm. Hess. CNVTRAH         .... auto
   Auto Start mean grad. ratio tolernc. ....  1.125000
   Auto Start start iteration           ....    50
   Auto Start num. interpolation iter.  ....    10
   Max. Number of Micro iterations      ....    24
   Max. Number of Macro iterations      .... Maxiter - #DIIS iter
   Number of Davidson start vectors     ....     2
   Converg. threshold    (grad. norm)   ....   5.000e-05
   Grad. Scal. Fac. for Micro threshold ....   0.100
   Minimum threshold for Micro iter.    ....   1.000e-02
   NR start threshold (gradient norm)   ....   1.000e-04
   Initial trust radius                 ....   0.400
   Minimum AH scaling param. (alpha)    ....   1.000
   Maximum AH scaling param. (alpha)    .... 1000.000
   Quad. conv. algorithm                .... NR
   White noise on init. David. guess    .... on
   Maximum white noise                  ....   0.010
   Pseudo random numbers                .... off
   Inactive MOs                         .... canonical
   Orbital update algorithm             .... Taylor
   Preconditioner                       .... Diag
   Full preconditioner red. dimension   ....   250
 SOSCF                  CNVSOSCF        .... on
   Start iteration      SOSCFMaxIt      ....   150
   Startup grad/error   SOSCFStart      ....  0.003300
   Hessian update       SOSCFHessUp     .... L-BFGS
 Level Shifting         CNVShift        .... on
   Level shift para.    LevelShift      ....    0.2500
   Turn off err/grad.   ShiftErr        ....    0.0010
 Zerner damping         CNVZerner       .... off
 Static damping         CNVDamp         .... on
   Fraction old density DampFac         ....    0.7000
   Max. Damping (<1)    DampMax         ....    0.9800
   Min. Damping (>=0)   DampMin         ....    0.0000
   Turn off err/grad.   DampErr         ....    0.1000

SCF Procedure:
 Maximum # iterations   MaxIter         ....   125
 SCF integral mode      SCFMode         .... Direct
   Integral package                     .... SHARK and LIBINT hybrid scheme
 Reset frequency        DirectResetFreq ....    20
 Integral Threshold     Thresh          ....  1.000e-12 Eh
 Primitive CutOff       TCut            ....  1.000e-13 Eh

Convergence Tolerance:
 Convergence Check Mode ConvCheckMode   .... Total+1el-Energy
 Convergence forced     ConvForced      .... 0
 Energy Change          TolE            ....  1.000e-06 Eh
 1-El. energy change                    ....  1.000e-03 Eh
 Orbital Gradient       TolG            ....  5.000e-05
 Orbital Rotation angle TolX            ....  5.000e-05
 DIIS Error             TolErr          ....  1.000e-06

------------------------------
INITIAL GUESS: MODEL POTENTIAL
------------------------------
Loading Hartree-Fock densities                     ... done
Calculating cut-offs                               ... done
Initializing the effective Hamiltonian             ... done
Setting up the integral package (SHARK)            ... done
Starting the Coulomb interaction                   ... done (   0.3 sec)
Making the grid                                    ... done (   0.3 sec)
Mapping shells                                     ... done
Starting the XC term evaluation                    ... done (   0.1 sec)
  promolecular density results
     # of electrons  =    157.990603534
     EX              =   -127.048670946
     EC              =      0.198273315
     EX+EC           =   -126.850397631
Transforming the Hamiltonian                       ... done (   0.3 sec)
Diagonalizing the Hamiltonian                      ... done (   0.4 sec)
Back transforming the eigenvectors                 ... done (   0.2 sec)
Now organizing SCF variables                       ... done
                      ------------------
                      INITIAL GUESS DONE (   2.0 sec)
                      ------------------
             **** ENERGY FILE WAS UPDATED (hc_c24h14_0pent_3_qz_ri.en.tmp) ****
Finished Guess after  17.7 sec
Maximum memory used throughout the entire GUESS-calculation: 202.3 MB


           ************************************************************
           *        Program running with 104 parallel MPI-processes   *
           *              working on a common directory               *
           ************************************************************

-------------------------------------------------------------------------------------------
                                      ORCA LEAN-SCF
                              memory conserving SCF solver
-------------------------------------------------------------------------------------------

----------------------------------------D-I-I-S--------------------------------------------
Iteration    Energy (Eh)           Delta-E    RMSDP     MaxDP     DIISErr   Damp  Time(sec)
-------------------------------------------------------------------------------------------
               ***  Starting incremental Fock matrix formation  ***
    1    -919.0438553275103004     0.00e+00  5.19e-04  1.14e-01  1.50e-01  0.700  12.7
    2    -919.2289592877200448    -1.85e-01  6.92e-04  1.71e-01  9.50e-02  0.700   9.2
                               ***Turning on AO-DIIS***
    3    -919.3389572582141227    -1.10e-01  3.13e-04  6.92e-02  5.79e-02  0.700   8.3
    4    -919.4077663775965448    -6.88e-02  4.63e-04  4.83e-02  3.99e-02  0.000   8.1
    5    -919.5582947708790016    -1.51e-01  8.09e-05  1.57e-02  3.59e-03  0.000   8.2
                              *** Initializing SOSCF ***
---------------------------------------S-O-S-C-F--------------------------------------
Iteration    Energy (Eh)           Delta-E    RMSDP     MaxDP     MaxGrad    Time(sec)
--------------------------------------------------------------------------------------
    6    -919.5585794322837501    -2.85e-04  3.45e-05  5.69e-03  1.14e-03     9.1
               *** Restarting incremental Fock matrix formation ***
    7    -919.5586504420807614    -7.10e-05  7.32e-05  1.52e-02  5.88e-04    11.7
    8    -919.5586760099968160    -2.56e-05  3.70e-05  3.92e-03  4.11e-04    10.2
    9    -919.5586831269320101    -7.12e-06  3.41e-05  6.60e-03  2.35e-04    10.0
   10    -919.5586855876517802    -2.46e-06  9.76e-06  2.43e-03  2.99e-05     9.9
   11    -919.5586857216612771    -1.34e-07  2.57e-06  4.82e-04  2.00e-05     9.5
                 **** Energy Check signals convergence ****

               *****************************************************
               *                     SUCCESS                       *
               *           SCF CONVERGED AFTER  11 CYCLES          *
               *****************************************************

Recomputing exchange energy using gridx3       ... done (   14.508 sec)
Old exchange energy                            :    -89.559223991 Eh
New exchange energy                            :    -89.559221681 Eh
Exchange energy change after final integration :      0.000002310 Eh
Total energy after final integration           :   -919.558683412 Eh
             **** ENERGY FILE WAS UPDATED (hc_c24h14_0pent_3_qz_ri.en.tmp) ****

----------------
TOTAL SCF ENERGY
----------------

Total Energy       :       -919.55868341154326 Eh          -25022.46389 eV

Components:
Nuclear Repulsion  :       1829.04843668793228 Eh           49770.93827 eV
Electronic Energy  :      -2748.60712240959356 Eh          -74793.40222 eV
One Electron Energy:      -4878.64755017266725 Eh         -132754.74896 eV
Two Electron Energy:       2130.04042776307369 Eh           57961.34674 eV

Virial components:
Potential Energy   :      -1837.12555950173555 Eh          -49990.72795 eV
Kinetic Energy     :        917.56687609019241 Eh           24968.26406 eV
Virial Ratio       :          2.00217074893749

DFT components:
N(Alpha)           :       78.999997292419 electrons
N(Beta)            :       78.999997292419 electrons
N(Total)           :      157.999994584839 electrons
E(X)               :      -40.064424074967 Eh       
E(C)               :       -2.355370828659 Eh       
E(XC)              :      -42.419794903626 Eh       

---------------
SCF CONVERGENCE
---------------

  Last Energy change         ...    1.3401e-07  Tolerance :   1.0000e-06
  Last MAX-Density change    ...    4.8222e-04  Tolerance :   1.0000e-05
  Last RMS-Density change    ...    2.5705e-06  Tolerance :   1.0000e-06
  Last DIIS Error            ...    1.1387e-03  Tolerance :   1.0000e-06
  Last Orbital Gradient      ...    2.0025e-05  Tolerance :   5.0000e-05
  Last Orbital Rotation      ...    6.3185e-05  Tolerance :   5.0000e-05


----------------
ORBITAL ENERGIES
----------------

  NO   OCC          E(Eh)            E(eV) 
   0   2.0000     -10.837902      -294.9143 
   1   2.0000     -10.836330      -294.8715 
   2   2.0000     -10.835627      -294.8524 
   3   2.0000     -10.835018      -294.8358 
   4   2.0000     -10.834091      -294.8106 
   5   2.0000     -10.832110      -294.7567 
   6   2.0000     -10.831585      -294.7424 
   7   2.0000     -10.830930      -294.7246 
   8   2.0000     -10.830614      -294.7160 
   9   2.0000     -10.830088      -294.7017 
  10   2.0000     -10.823607      -294.5253 
  11   2.0000     -10.823094      -294.5114 
  12   2.0000     -10.822317      -294.4902 
  13   2.0000     -10.822253      -294.4885 
  14   2.0000     -10.821866      -294.4779 
  15   2.0000     -10.821782      -294.4757 
  16   2.0000     -10.821757      -294.4750 
  17   2.0000     -10.821405      -294.4654 
  18   2.0000     -10.820808      -294.4491 
  19   2.0000     -10.820727      -294.4470 
  20   2.0000     -10.820634      -294.4444 
  21   2.0000     -10.820230      -294.4334 
  22   2.0000     -10.819853      -294.4232 
  23   2.0000     -10.819257      -294.4069 
  24   2.0000      -1.098670       -29.8963 
  25   2.0000      -1.069988       -29.1158 
  26   2.0000      -1.045016       -28.4363 
  27   2.0000      -1.025088       -27.8941 
  28   2.0000      -0.992419       -27.0051 
  29   2.0000      -0.974118       -26.5071 
  30   2.0000      -0.956311       -26.0226 
  31   2.0000      -0.935970       -25.4690 
  32   2.0000      -0.913075       -24.8460 
  33   2.0000      -0.898064       -24.4376 
  34   2.0000      -0.889878       -24.2148 
  35   2.0000      -0.875182       -23.8149 
  36   2.0000      -0.787611       -21.4320 
  37   2.0000      -0.782622       -21.2962 
  38   2.0000      -0.777275       -21.1507 
  39   2.0000      -0.773378       -21.0447 
  40   2.0000      -0.750239       -20.4150 
  41   2.0000      -0.725421       -19.7397 
  42   2.0000      -0.695234       -18.9183 
  43   2.0000      -0.672762       -18.3068 
  44   2.0000      -0.654899       -17.8207 
  45   2.0000      -0.636670       -17.3247 
  46   2.0000      -0.629460       -17.1285 
  47   2.0000      -0.622173       -16.9302 
  48   2.0000      -0.599716       -16.3191 
  49   2.0000      -0.588541       -16.0150 
  50   2.0000      -0.581906       -15.8345 
  51   2.0000      -0.557613       -15.1734 
  52   2.0000      -0.552184       -15.0257 
  53   2.0000      -0.546451       -14.8697 
  54   2.0000      -0.540666       -14.7123 
  55   2.0000      -0.531376       -14.4595 
  56   2.0000      -0.524419       -14.2702 
  57   2.0000      -0.518680       -14.1140 
  58   2.0000      -0.513663       -13.9775 
  59   2.0000      -0.509402       -13.8615 
  60   2.0000      -0.494732       -13.4623 
  61   2.0000      -0.487357       -13.2617 
  62   2.0000      -0.480568       -13.0769 
  63   2.0000      -0.469830       -12.7847 
  64   2.0000      -0.463534       -12.6134 
  65   2.0000      -0.455015       -12.3816 
  66   2.0000      -0.446730       -12.1561 
  67   2.0000      -0.437930       -11.9167 
  68   2.0000      -0.432599       -11.7716 
  69   2.0000      -0.414834       -11.2882 
  70   2.0000      -0.408547       -11.1171 
  71   2.0000      -0.387222       -10.5368 
  72   2.0000      -0.369396       -10.0518 
  73   2.0000      -0.346410        -9.4263 
  74   2.0000      -0.333935        -9.0868 
  75   2.0000      -0.300594        -8.1796 
  76   2.0000      -0.283696        -7.7198 
  77   2.0000      -0.267470        -7.2782 
  78   2.0000      -0.236488        -6.4352 
  79   0.0000       0.000390         0.0106 
  80   0.0000       0.024238         0.6596 
  81   0.0000       0.034592         0.9413 
  82   0.0000       0.049731         1.3533 
  83   0.0000       0.073814         2.0086 
  84   0.0000       0.076473         2.0809 
  85   0.0000       0.079450         2.1619 
  86   0.0000       0.081435         2.2160 
  87   0.0000       0.092863         2.5269 
  88   0.0000       0.093396         2.5414 
  89   0.0000       0.099752         2.7144 
*Only the first 10 virtual orbitals were printed.
-------
TIMINGS
-------

Total SCF time: 0 days 0 hours 2 min 18 sec 

Total time                  ....     138.568 sec
Sum of individual times     ....     138.422 sec  ( 99.9%)

SCF preparation             ....      15.401 sec  ( 11.1%)
Fock matrix formation       ....     100.615 sec  ( 72.6%)
  Startup                   ....       1.452 sec  (  1.4% of F)
  Split-RI-J                ....       7.168 sec  (  7.1% of F)
  Chain of spheres X        ....      77.832 sec  ( 77.4% of F)
  XC integration            ....      10.479 sec  ( 10.4% of F)
    XC Preparation          ....       0.000 sec  (  0.0% of XC)
    Basis function eval.    ....       0.892 sec  (  8.5% of XC)
    Density eval.           ....       1.907 sec  ( 18.2% of XC)
    XC-Functional eval.     ....       0.030 sec  (  0.3% of XC)
    XC-Potential eval.      ....       1.977 sec  ( 18.9% of XC)
Diagonalization             ....       0.000 sec  (  0.0%)
Density matrix formation    ....       3.205 sec  (  2.3%)
Total Energy calculation    ....       1.850 sec  (  1.3%)
Population analysis         ....       0.000 sec  (  0.0%)
Orbital Transformation      ....       2.295 sec  (  1.7%)
Orbital Orthonormalization  ....       0.000 sec  (  0.0%)
DIIS solution               ....      10.300 sec  (  7.4%)
SOSCF solution              ....       4.649 sec  (  3.4%)
Finished LeanSCF after 139.5 sec

Maximum memory used throughout the entire LEANSCF-calculation: 348.2 MB


           ************************************************************
           *        Program running with 104 parallel MPI-processes   *
           *              working on a common directory               *
           ************************************************************

------------------------------------------------------------------------------
                                ORCA  MP2 
------------------------------------------------------------------------------


-------------
RI-MP2 ENERGY
-------------
Dimension of the orbital basis            ... 1788
Dimension of the AuxC basis               ... 4168
Memory devoted to MP2                     ... 4096 MB   
Data format for matrix containers         ... DOUBLE
Compression type for matrix containers    ... UNCOMPRESSED
Scaling for aa/bb pairs                   ...   5.710e-02
Scaling for ab pairs                      ...   5.979e-01
Overall scaling of the MP2 energy         ...   1.000e+00

-----------------------
SHARK RI TRANSFORMATION
-----------------------

Number of basis functions                ...   1788
Number of aux functions                  ...   4168
Number of operators                      ...      1
Generation of IJK                        ... NO
Generation of IAK                        ... YES
Generation of ABK                        ... NO
Orbital Range Operator  0:    0-  78 to   79-1787

Aux basis identifier                     ...   AUXC
Contraction scheme used                  ... SEGMENTED
Do orthogonalization                     ... YES
All operator combinations                ... NO
Transpose (ia|K)                         ... NO
Integral generator used                  ... LIBINT
Starting integral generation + trafo... 
Half trafo (segmented) done. Total time =  6.2 sec. integrals=  1.5 sec trafo=  3.0 sec
Integral generation and half transformation done (  6.2 sec)

Reading or making V^(-1/2)          ... done (  0.4 sec)
Sorting IAK integrals               ... done (  5.0 sec)

SHARK RI integral transformation done. Total time = 11.7 sec.

Opening buffers                              ... done

Starting loop over batches of integrals:

Operator 0  - window                       ... (  0- 78)x( 79-1787)
Operator 0  - Memory available             ...  4096 MB
Operator 0  - Memory needed per MO         ...  54.3 MB
Operator 0  - Number of orbitals per batch ... 1
Operator 0  - Number of batches            ... 1

OPERATOR  0   PASS   0:  MOs     0 ...    0 +    1 ...    1 +    2 ...    2 +    3 ...    3
                            +    4 ...    4 +    5 ...    5 +    6 ...    6 +    7 ...    7
                            +    8 ...    8 +    9 ...    9 +   10 ...   10 +   11 ...   11
                            +   12 ...   12 +   13 ...   13 +   14 ...   14 +   15 ...   15
                            +   16 ...   16 +   17 ...   17 +   18 ...   18 +   19 ...   19
                            +   20 ...   20 +   21 ...   21 +   22 ...   22 +   23 ...   23
                            +   24 ...   24 +   25 ...   25 +   26 ...   26 +   27 ...   27
                            +   28 ...   28 +   29 ...   29 +   30 ...   30 +   31 ...   31
                            +   32 ...   32 +   33 ...   33 +   34 ...   34 +   35 ...   35
                            +   36 ...   36 +   37 ...   37 +   38 ...   38 +   39 ...   39
                            +   40 ...   40 +   41 ...   41 +   42 ...   42 +   43 ...   43
                            +   44 ...   44 +   45 ...   45 +   46 ...   46 +   47 ...   47
                            +   48 ...   48 +   49 ...   49 +   50 ...   50 +   51 ...   51
                            +   52 ...   52 +   53 ...   53 +   54 ...   54 +   55 ...   55
                            +   56 ...   56 +   57 ...   57 +   58 ...   58 +   59 ...   59
                            +   60 ...   60 +   61 ...   61 +   62 ...   62 +   63 ...   63
                            +   64 ...   64 +   65 ...   65 +   66 ...   66 +   67 ...   67
                            +   68 ...   68 +   69 ...   69 +   70 ...   70 +   71 ...   71
                            +   72 ...   72 +   73 ...   73 +   74 ...   74 +   75 ...   75
                            +   76 ...   76 +   77 ...   77 +   78 ...   78
  Reading integrals       ... ok
Time spent in pair loops =    38.735 sec

-----------------------------------------------
 RI-MP2 CORRELATION ENERGY:     -2.366845350 Eh
-----------------------------------------------


-------
TIMINGS
-------

Total time                :   53.421 sec
Integral trafo            :   11.951 sec ( 22.4%)
I/O of integrals          :    0.054 sec (  0.1%)
K(i,j) operators          :    0.428 sec (  0.8%)
T(i,j) pair energies      :    0.080 sec (  0.2%)
V**(-1/2)                 :    2.734 sec (  5.1%)


---------------------------------------
MP2 TOTAL ENERGY:     -921.925528762 Eh
---------------------------------------

Maximum memory used throughout the entire MP2-calculation: 403.9 MB


-------------------------------------------------------------------------------
                          DFT DISPERSION CORRECTION                            
                                                                               
                                DFTD4 V3.4.0                                   
-------------------------------------------------------------------------------
The REV-DSD-PBEP86-2021 functional is recognized
A user input s6-coefficient scaling factor has been recognized
A user input a1-coefficient scaling factor has been recognized
A user input s8-coefficient scaling factor has been recognized
A user input a2-coefficient scaling factor has been recognized
A user input s9-coefficient scaling factor has been recognized
Active option DFTDOPT                   ...         5   

-------------------------   ----------------
Dispersion correction           -0.038700540
-------------------------   ----------------


-------------------------   --------------------
FINAL SINGLE POINT ENERGY      -921.964229301181
-------------------------   --------------------



           ************************************************************
           *        Program running with 104 parallel MPI-processes   *
           *              working on a common directory               *
           ************************************************************

------------------------------------------------------------------------------
                              ORCA PROPERTY CALCULATIONS
------------------------------------------------------------------------------

GBWName                                 ... hc_c24h14_0pent_3_qz_ri.gbw
Number of atoms                         ...     38
Number of basis functions               ...   1788
Max core memory                         ...   1024 MB

Electric properties:
Dipole moment                           ... YES
Quadrupole moment                       ...  NO
Static polarizability (Dipole/Dipole)   ...  NO
Static polarizability (Dipole/Quad.)    ...  NO
Static polarizability (Quad./Quad.)     ...  NO
Static polarizability (Velocity)        ...  NO

Atomic electric properties:
Dipole moment                           ...  NO
Quadrupole moment                       ...  NO
Static polarizability                   ...  NO

Choice of electric origin               ... Center of mass
Position of electric origin             ...     0.054655    -0.109546    -0.045676

General magnetic properties:
Magnetizability                         ...  NO

EPR properties:
g-Tensor (aka g-matrix)                 ...  NO
Zero-Field splitting spin-orbit         ...  NO
Zero-field splitting spin-spin          ...  NO
Hyperfine couplings                     ...  NO (   0 nuclei)
Quadrupole couplings                    ...  NO (   0 nuclei)
Contact density                         ...  NO (   0 nuclei)

NMR properties:
Chemical shifts                         ...  NO (   0 nuclei)
Spin-rotation constants                 ...  NO (   0 nuclei)
Spin-spin couplings                     ...  NO (   0 nuclei,    0 pairs)

Choice of magnetic origin               ... GIAO
Position of magnetic origin             ...     0.000000     0.000000     0.000000

Properties with geometric perturbations:
SCF Hessian                             ...  NO
IR spectrum                             ...  NO
VCD spectrum                            ...  NO
X-ray spectroscopy properties:
SCF XES/XAS/RIXS spectra                ...  NO


-------------
DIPOLE MOMENT
-------------

Method             : SCF
Type of density    : Electron Density
Multiplicity       :   1
Irrep              :   0
Energy             :  -919.5586834115432566 Eh
Relativity type    : 
Basis              : AO
                                X                 Y                 Z
Electronic contribution:      1.125166860      -2.243516683      -0.933398630
Nuclear contribution   :     -1.126576798       2.258023246       0.939617038
                        -----------------------------------------
Total Dipole Moment    :     -0.001409937       0.014506564       0.006218408
                        -----------------------------------------
Magnitude (a.u.)       :      0.015846038
Magnitude (Debye)      :      0.040277427



--------------------
Rotational spectrum 
--------------------
 
Rotational constants in cm-1:             0.015182             0.007007             0.004921 
Rotational constants in MHz :           455.137755           210.074119           147.525374 

Dipole components along the rotational axes: 
x,y,z [a.u.] :     0.015395     0.001027     0.003612 
x,y,z [Debye]:     0.039130     0.002610     0.009181 

 

Dipole moment calculation done in   0.2 sec 

Maximum memory used throughout the entire PROP-calculation: 221.8 MB

--------------------------------
SUGGESTED CITATIONS FOR THIS RUN
--------------------------------

Below you find a list of papers that are relevant to this ORCA run
We neither can nor want to force you to cite these papers, but we appreciate if you do
You receive ORCA, which is the product of decades of hard work by many enthusiastic individuals, for free
The only thing we kindly ask in return is that you cite our papers,
We deeply appreciate it, if you show your appreciation for ORCA by not just citing the generic ORCA reference.

Please note that relegating all ORCA citations to the supporting information does *not* help us.
SI sections are not indexed - citations you put there will not count into any citation statistics
But we need these citations in order to attract the funding resources that allow us to do what we are doing

Therefore, if you are a happy ORCA user, please consider citing a few of the papers listed below in the main body of your paper

In addition to the list printed below, the program has created the file hc_c24h14_0pent_3_qz_ri.bibtex that contains the list in bibtex format
You can import this file easily into all common literature databanks and citation aid programs


List of essential papers. We consider these as the minimum necessary citations

  1. Neese,F.
     Software update: the ORCA program system, version 5.0
     WIRES Comput. Molec. Sci., 2022 12(1)e1606
     doi.org/10.1002/wcms.1606

List of papers to cite with high priority. The work reported in these papers was absolutely
necessary for this run to complete.
Our perspective: the developers of density functionals and basis sets usually get cited in chemistry papers
Good! But without the algorithms to do something with them, the functionals or basis sets would not do anything.
Hence, in our opinion, the algorithm design and method developments papers are equally worthy of getting cited

  1. Neese,F.
     An improvement of the resolution of the identity approximation for the formation of the Coulomb matrix
     J. Comp. Chem., 2003 24(14)1740-1747
     doi.org/10.1002/jcc.10318
  2. Neese,F.; Wennmohs,F.; Hansen,A.; Becker,U.
     Efficient, approximate and parallel Hartree-Fock and hybrid DFT calculations. A 'chain-of-spheres' algorithm for the Hartree-Fock exchange
     Chem. Phys., 2009 356(1-3)98-109
     doi.org/10.1016/j.chemphys.2008.10.036
  3. Kossmann,S.; Neese,F.
     Efficient Structure Optimization with Second-Order Many-Body Perturbation Theory: The RIJCOSX-MP2 Method
     J. Theo. Comp. Chem., 2010 6 2325-2338
     doi.org/10.1021/ct100199k
  4. Helmich-Paris,B.; de Souza,B.; Neese,F.; Izsák,R.
     An improved chain of spheres for exchange algorithm
     J. Chem. Phys., 2021 155 104109
     doi.org/doi: 10.1063/5.0058766.
  5. Neese,F.
     The SHARK Integral Generation and Digestion System
     J. Comp. Chem., 2022  1-16
     doi.org/10.1002/jcc.26942
  6. Caldeweyher,E.; Bannwarth,C.; Grimme,S.
     Extension of the D3 dispersion coefficient model
     J. Chem. Phys., 2017 147 034112
     doi.org/10.1063/1.4993215
  7. Caldeweyher,E.; Ehlert,S.; Hansen,A.; Neugebauer,H.; Spicher,S.; Bannwarth,C.; Grimme,S.
     A generally applicable atomic-charge dependent London dispersion correction
     J. Chem. Phys., 2019 150 154122
     doi.org/10.1063/1.5090222
  8. Caldeweyher,E.; Mewes,J.; Ehlert,S.; Grimme,S.
     Extension and evaluation of the D4 London-dispersion model for periodic systems
     Phys. Chem. Chem. Phys., 2020 22(16)8499-8512
     doi.org/10.1039/D0CP00502A
  9. Wittmann,L.; Gordiy,I.; Friede,M.; Helmich-Paris,B.; Grimme,S.; Hansen,A.; Bursch,M.
     Extension of the D3 and D4 London Dispersion Corrections to the full Actinides Series
     Phys. Chem. Chem. Phys., 2024 26(32)21379-21394
     doi.org/https://doi.org/10.1039/D4CP01514B 

List of suggested additional citations. These are papers that are important in the 'surrounding' of 
of this run, or papers that preceded the highly important papers. If you like your results we are grateful for a citation.

  1. Izsak,R.; Neese,F.
     An overlap fitted chain of spheres exchange method
     J. Chem. Phys., 2011 135 144105
     doi.org/10.1063/1.3646921
  2. Izsak,R.; Hansen,A.; Neese,F.
     The resolution of identity and chain of spheres approximations for the LPNO-CCSD singles Fock term
     Molec. Phys., 2012 110 2413-2417
     doi.org/10.1080/00268976.2012.687466
  3. Neese,F.
     The ORCA program system
     WIRES Comput. Molec. Sci., 2012 2(1)73-78
     doi.org/10.1002/wcms.81
  4. Izsak,R.; Neese,F.; Klopper,W.
     Robust fitting techniques in the chain of spheres approximation to the Fock exchange: The role of the complementary space
     J. Chem. Phys., 2013 139 
     doi.org/10.1063/1.4819264
  5. Neese,F.
     Software update: the ORCA program system, version 4.0
     WIRES Comput. Molec. Sci., 2018 8(1)1-6
     doi.org/10.1002/wcms.1327
  6. Neese,F.; Wennmohs,F.; Becker,U.; Riplinger,C.
     The ORCA quantum chemistry program package
     J. Chem. Phys., 2020 152 Art. No. L224108
     doi.org/10.1063/5.0004608

List of optional additional citations

  1. Neese,F.
     Approximate second-order SCF convergence for spin unrestricted wavefunctions
     Chem. Phys. Lett., 2000 325(1-3)93-98
     doi.org/10.1016/s0009-2614(00)00662-x

Timings for individual modules:

Sum of individual times          ...      281.420 sec (=   4.690 min)
Startup calculation              ...       33.193 sec (=   0.553 min)  11.8 %
SCF iterations                   ...      160.382 sec (=   2.673 min)  57.0 %
Property calculations            ...       17.088 sec (=   0.285 min)   6.1 %
MP2 module                       ...       70.758 sec (=   1.179 min)  25.1 %
                             ****ORCA TERMINATED NORMALLY****
TOTAL RUN TIME: 0 days 0 hours 5 minutes 9 seconds 840 msec
