
                                 *****************
                                 * O   R   C   A *
                                 *****************

                                            #,                                       
                                            ###                                      
                                            ####                                     
                                            #####                                    
                                            ######                                   
                                           ########,                                 
                                     ,,################,,,,,                         
                               ,,#################################,,                 
                          ,,##########################################,,             
                       ,#########################################, ''#####,          
                    ,#############################################,,   '####,        
                  ,##################################################,,,,####,       
                ,###########''''           ''''###############################       
              ,#####''   ,,,,##########,,,,          '''####'''          '####       
            ,##' ,,,,###########################,,,                        '##       
           ' ,,###''''                  '''############,,,                           
         ,,##''                                '''############,,,,        ,,,,,,###''
      ,#''                                            '''#######################'''  
     '                                                          ''''####''''         
             ,#######,   #######,   ,#######,      ##                                
            ,#'     '#,  ##    ##  ,#'     '#,    #''#        ,####,   ,####,        
            ##       ##  ##   ,#'  ##            #'  '#       #'       #'  '#        
            ##       ##  #######   ##           ,######,      #####,   #    #        
            '#,     ,#'  ##    ##  '#,     ,#' ,#      #,     #,   #   #,  ,#        
             '#######'   ##     ##  '#######'  #'      '#     '####' # '####'        



                #########################################################
                #                        -***-                          #
                #          Department of theory and spectroscopy        #
                #                                                       #
                #                      Frank Neese                      #
                #                                                       #
                #     Directorship, Architecture, Infrastructure        #
                #                    SHARK, DRIVERS                     #
                #        Core code/Algorithms in most modules           #
                #                                                       #
                #        Max Planck Institute fuer Kohlenforschung      #
                #                Kaiser Wilhelm Platz 1                 #
                #                 D-45470 Muelheim/Ruhr                 #
                #                      Germany                          #
                #                                                       #
                #                  All rights reserved                  #
                #                        -***-                          #
                #########################################################


                         Program Version 6.0.1  -  RELEASE   -


 With contributions from (in alphabetic order):
[Max-Planck-Institut fuer Kohlenforschung]                               
  Daniel Aravena         : Magnetic Suceptibility                        
  Michael Atanasov       : Ab Initio Ligand Field Theory (pilot matlab implementation)
  Alexander A. Auer      : GIAO ZORA, VPT2 properties, NMR spectrum      
  Ute Becker             : All parallelization in ORCA, NUMFREQ, NUMCALC 
  Giovanni Bistoni       : ED, misc. LED, open-shell LED, HFLD           
  Martin Brehm           : Molecular dynamics                            
  Dmytro Bykov           : pre 5.0 version of the SCF Hessian            
  Marcos Casanova-Páez   : Triplet and SCS-CIS(D). UHF-(DLPNO)-IP/EA/STEOM-CCSD. UHF-CVS-IP/STEOM-CCSD   
  Vijay G. Chilkuri      : MRCI spin determinant printing, contributions to CSF-ICE 
  Pauline Colinet        : FMM embedding                                 
  Dipayan Datta          : RHF DLPNO-CCSD density                        
  Achintya Kumar Dutta   : EOM-CC, STEOM-CC                              
  Nicolas Foglia         : Exact transition moments, OPA infrastructure, MCD improvements    
  Dmitry Ganyushin       : Spin-Orbit,Spin-Spin,Magnetic field MRCI      
  Miquel Garcia-Rates    : C-PCM and meta-GGA Hessian, CCSD/C-PCM, Gaussian charge scheme 
  Tiago L. C. Gouveia    : GS-ROHF, GS-ROCIS                             
  Yang Guo               : DLPNO-NEVPT2, F12-NEVPT2, CIM, IAO-localization        
  Andreas Hansen         : Spin unrestricted coupled pair/coupled cluster methods 
  Ingolf Harden          : AUTO-CI MPn and infrastructure                
  Benjamin Helmich-Paris : MC-RPA, TRAH-(SCF,CASSCF), AVAS, COSX integrals, SCF dyn. polar. 
  Lee Huntington         : MR-EOM, pCC                                   
  Robert Izsak           : Overlap fitted RIJCOSX, COSX-SCS-MP3, EOM     
  Riya Kayal             : Wick's Theorem for AUTO-CI, AUTO-CI UHF-CCSDT 
  Emily Kempfer          : AUTO-CI, RHF CISDT and CCSDT                  
  Christian Kollmar      : KDIIS, OOCD, Brueckner-CCSD(T), CCSD density, CASPT2, CASPT2-K, improved NEVPT2 
  Axel Koslowski         : Symmetry handling                             
  Simone Kossmann        : meta-GGA functionals, TD-DFT gradient, OOMP2, (MP2 Hessian; deprecated post 5.0) 
  Lucas Lang             : DCDCAS                                        
  Marvin Lechner         : AUTO-CI (C++ implementation), FIC-MRCC        
  Spencer Leger          : CASSCF response                               
  Dagmar Lenk            : GEPOL surface, SMD, ORCA-2-JSON               
  Dimitrios Liakos       : Extrapolation schemes; Compound Job, initial MDCI parallelization 
  Dimitrios Manganas     : Further ROCIS development; embedding schemes. LFT, Crystal Embedding 
  Dimitrios Pantazis     : SARC Basis sets                               
  Anastasios Papadopoulos: AUTO-CI, single reference methods and gradients 
  Taras Petrenko         : pre 6.0 DFT Hessian and TD-DFT gradient, (ASA, deprecated), ECA, 1-Electron XAS/XES, NRVS 
  Peter Pinski           : DLPNO-MP2, DLPNO-MP2 Gradient                 
  Christoph Reimann      : Effective Core Potentials                     
  Marius Retegan         : Local ZFS, SOC                                
  Christoph Riplinger    : Optimizer, TS searches, QM/MM, DLPNO-CCSD(T), (RO)-DLPNO pert. Triples 
  Michael Roemelt        : Original ROCIS implementation                 
  Masaaki Saitow         : Open-shell DLPNO-CCSD energy and density      
  Barbara Sandhoefer     : DKH picture change effects                    
  Kantharuban Sivalingam : CASSCF convergence/infrastructure, NEVPT2 and variants, FIC-MRCI 
  Bernardo de Souza      : ESD, SOC TD-DFT                               
  Georgi L. Stoychev     : AutoAux, RI-MP2 NMR, DLPNO-MP2 response, X2C  
  Van Anh Tran           : RI-MP2 g-tensors                              
  Willem Van den Heuvel  : Paramagnetic NMR                              
  Zikuan Wang            : NOTCH, Electric field optimization            
  Frank Wennmohs         : Technical directorship and infrastructure     
  Hang Xu                : AUTO-CI-Response properties                   
                                                                         
[FACCTs GmbH]                                                            
  Markus Bursch, Miquel Garcia-Rates, Christoph Riplinger, Bernardo de Souza, Georgi L. Stoychev 
                                                                 
  APM, Basis sets (HGBS, AHGBS, def-TZVP (Ac-Lr), def2-XVPD (La-Lu)), CI-OPT, improved COSX, DLPNO-Multilevel,           
  DOCKER, DRACO, updates on ESD, GOAT, IRC, LR-CPCM, MBIS, meta-GGA TD-DFT gradient, ML-optimized integration grids, 
  MM, NACMEs, nearIR, NEB, NEB-TS, NL-DFT gradient (VV10), 2- and 3-layer-ONIOM, interface openCOSMO-RS, QMMM,   
  Crystal-QMMM, SF, symmetry and pop. for TD-DFT, r2SCAN hybrids, SOLVATOR                                   
                                                                         
[Other institutions]                                                     
  V. Asgeirsson          : NEB                                           
  Christoph Bannwarth    : sTDA-DFT, sTD-DFT, PBEh-3c, B97-3c, D3        
  Sebastian Ehlert       : rSCAN, r2SCAN, r2SCAN-3c, D4, dhf basis sets  
  Marvin Friede          : D4 for Fr, Ra, Ac-Lr                          
  Lars Goerigk           : TD-DFT with DH, B97 family of functionals     
  Stefan Grimme          : VdW corrections, initial TS optimization, DFT functionals, gCP, sTDA/sTD-DF 
  Waldemar Hujo          : DFT-NL                                        
  H. Jonsson             : NEB                                           
  Holger Kruse           : gCP                                           
  Marcel Mueller         : wB97X-3c, vDZP basis set                      
  Hagen Neugebauer       : wr2SCAN                                       
  Tobias Risthaus        : range-separated hybrid DFT                    
  Lukas Wittmann         : regularized MP2, r2SCAN double-hybrids, wr2SCAN        
                                                                         
We gratefully acknowledge several colleagues who have allowed us to      
interface, adapt or use parts of their codes:                            
  Ed Valeev, F. Pavosevic, A. Kumar             : LibInt (2-el integral package), F12 methods 
  Garnet Chan, S. Sharma, J. Yang, R. Olivares  : DMRG                   
  Ulf Ekstrom                                   : XCFun DFT Library      
  Mihaly Kallay                                 : mrcc  (arbitrary order and MRCC methods)
  Frank Weinhold                                : gennbo (NPA and NBO analysis)           
  Simon Mueller                                 : openCOSMO-RS                            
  Christopher J. Cramer and Donald G. Truhlar   : smd solvation model                     
  S Lehtola, MJT Oliveira, MAL Marques          : LibXC Library                           
  Liviu Ungur et al                             : ANISO software                          


 Your calculation uses the libint2 library for the computation of 2-el integrals
 For citations please refer to: http://libint.valeyev.net

 Your ORCA version has been built with support for libXC version: 6.2.2
 For citations please refer to: https://libxc.gitlab.io

 This ORCA versions uses:
   CBLAS   interface :  Fast vector & matrix operations
   LAPACKE interface :  Fast linear algebra routines
   SCALAPACK package :  Parallel linear algebra routines
   Shared memory     :  Shared parallel matrices
   BLAS/LAPACK       :  OpenBLAS 0.3.27  USE64BITINT DYNAMIC_ARCH NO_AFFINITY SapphireRapids SINGLE_THREADED
        Core in use  :  SapphireRapids
   Copyright (c) 2011-2014, The OpenBLAS Project




***************************************
The coordinates will be read from file: /scratch/kx58/rs2200/dhdft/inputs/compas3x-xyzs/hc_c24h14_0pent_8.xyz
***************************************


Your calculation utilizes the atom-pairwise dispersion correction
based on EEQ partial charges (D4)


Warning: RI is on but no J-basis has been assigned. Assigning Def2/J (nothing to worry about!)
================================================================================

----- Orbital basis set information -----
Your calculation utilizes the basis: def2-SVP
   F. Weigend and R. Ahlrichs, Phys. Chem. Chem. Phys. 7, 3297 (2005).

----- AuxJ basis set information -----
Your calculation utilizes the auxiliary basis: def2/J
   F. Weigend, Phys. Chem. Chem. Phys. 8, 1057 (2006).

----- AuxC basis set information -----
Your calculation utilizes the auxiliary basis: def2-SVP/C
  H-La, Hf-Rn : A. Hellweg, C. Hattig, S. Hofener and W. Klopper, Theor. Chem. Acc. 117, 587 (2007).
        Ce-Lu : J. Chmela and M. E. Harding, Mol. Phys. (2018).

================================================================================
                                        WARNINGS
                       Please study these warnings very carefully!
================================================================================


WARNING: No MP2 level density has been requested!
         To calculate MP2 level properties use
         %mp2 Density relaxed end
         or
         %mp2 Density unrelaxed end
         Otherwise for double-hybrid DFT only the energy is correct!

================================================================================
                                       INPUT FILE
================================================================================
NAME = hc_c24h14_0pent_8_dz_ri.inp
|  1> ! RKS revDSD-PBEP86-D4/2021 defgrid3  NOPOP NoFrozencore NoUseSym
|  2> 
|  3> %basis
|  4>   Basis "def2-SVP"
|  5>   
|  6>   AuxC "def2-SVP/C"
|  7> end
|  8> 
|  9> %method
| 10>   ScalHFX 0.69
| 11>   ScalDFX 0.31
| 12>   ScalDFC 0.4038
| 13>   ScalLDAC 0.4038
| 14> 
| 15>   D4S6 0.4612
| 16>   D4S8 0.0
| 17>   D4A1 0.44
| 18>   D4A2 3.60
| 19> end
| 20> 
| 21> %mp2
| 22>   PS 0.5979
| 23>   PT 0.0571
| 24> end
| 25> 
| 26> %pal
| 27>     nprocs 104
| 28> end
| 29> 
| 30> *XYZFILE 0 1 /scratch/kx58/rs2200/dhdft/inputs/compas3x-xyzs/hc_c24h14_0pent_8.xyz
| 31> 
| 32>                          ****END OF INPUT****
================================================================================

                       ****************************
                       * Single Point Calculation *
                       ****************************

---------------------------------
CARTESIAN COORDINATES (ANGSTROEM)
---------------------------------
  C      1.810806    0.171809   -0.001627
  C      0.406486    0.315242    0.000884
  C     -0.177548    1.614470    0.004282
  C      0.659869    2.757807    0.006492
  C      2.064762    2.580865    0.004338
  C      2.613230    1.342011    0.000242
  C      2.403591   -1.132035   -0.004180
  C      1.547991   -2.260918    0.003884
  C      0.152762   -2.081751    0.007523
  C     -0.437570   -0.840035    0.002198
  C     -1.884196   -0.672008   -0.001325
  C     -2.449651    0.619717    0.001848
  C     -1.585621    1.789968    0.006901
  C     -2.092536    3.083799    0.012811
  C     -1.262818    4.197592    0.015149
  C      0.100237    4.041807    0.011706
  C      3.792748   -1.363730   -0.013884
  C      4.304127   -2.634503   -0.013212
  C      3.453185   -3.746005   -0.002153
  C      2.099938   -3.558920    0.006001
  C     -2.745272   -1.776593   -0.010054
  C     -4.113166   -1.632227   -0.013489
  C     -4.668943   -0.360834   -0.008682
  C     -3.844905    0.740388   -0.001653
  H      2.692594    3.460639    0.006650
  H      3.687064    1.249198   -0.000159
  H     -0.442885   -2.980713    0.014001
  H     -3.156491    3.255406    0.015863
  H     -1.700012    5.185533    0.019598
  H      0.756282    4.900222    0.013334
  H      4.482302   -0.534714   -0.023099
  H      5.374022   -2.784193   -0.021315
  H      3.871584   -4.741739   -0.000897
  H      1.427895   -4.405589    0.013407
  H     -2.343893   -2.776739   -0.015383
  H     -4.749426   -2.504960   -0.020339
  H     -5.741598   -0.234766   -0.011215
  H     -4.303945    1.715497    0.000556

----------------------------
CARTESIAN COORDINATES (A.U.)
----------------------------
  NO LB      ZA    FRAG     MASS         X           Y           Z
   0 C     6.0000    0    12.011    3.421928    0.324672   -0.003075
   1 C     6.0000    0    12.011    0.768147    0.595721    0.001670
   2 C     6.0000    0    12.011   -0.335516    3.050907    0.008093
   3 C     6.0000    0    12.011    1.246972    5.211499    0.012267
   4 C     6.0000    0    12.011    3.901834    4.877129    0.008198
   5 C     6.0000    0    12.011    4.938289    2.536034    0.000458
   6 C     6.0000    0    12.011    4.542129   -2.139236   -0.007899
   7 C     6.0000    0    12.011    2.925278   -4.272515    0.007340
   8 C     6.0000    0    12.011    0.288678   -3.933939    0.014216
   9 C     6.0000    0    12.011   -0.826887   -1.587436    0.004154
  10 C     6.0000    0    12.011   -3.560614   -1.269911   -0.002504
  11 C     6.0000    0    12.011   -4.629170    1.171096    0.003492
  12 C     6.0000    0    12.011   -2.996389    3.382549    0.013040
  13 C     6.0000    0    12.011   -3.954321    5.827536    0.024209
  14 C     6.0000    0    12.011   -2.386381    7.932299    0.028628
  15 C     6.0000    0    12.011    0.189420    7.637908    0.022121
  16 C     6.0000    0    12.011    7.167256   -2.577076   -0.026237
  17 C     6.0000    0    12.011    8.133621   -4.978489   -0.024967
  18 C     6.0000    0    12.011    6.525575   -7.078923   -0.004069
  19 C     6.0000    0    12.011    3.968308   -6.725383    0.011340
  20 C     6.0000    0    12.011   -5.187812   -3.357274   -0.018999
  21 C     6.0000    0    12.011   -7.772758   -3.084463   -0.025490
  22 C     6.0000    0    12.011   -8.823024   -0.681877   -0.016407
  23 C     6.0000    0    12.011   -7.265817    1.399131   -0.003124
  24 H     1.0000    0     1.008    5.088265    6.539661    0.012567
  25 H     1.0000    0     1.008    6.967541    2.360641   -0.000300
  26 H     1.0000    0     1.008   -0.836931   -5.632731    0.026458
  27 H     1.0000    0     1.008   -5.964904    6.151825    0.029977
  28 H     1.0000    0     1.008   -3.212557    9.799238    0.037034
  29 H     1.0000    0     1.008    1.429167    9.260078    0.025197
  30 H     1.0000    0     1.008    8.470324   -1.010463   -0.043651
  31 H     1.0000    0     1.008   10.155430   -5.261363   -0.040280
  32 H     1.0000    0     1.008    7.316234   -8.960589   -0.001695
  33 H     1.0000    0     1.008    2.698330   -8.325356    0.025336
  34 H     1.0000    0     1.008   -4.429317   -5.247276   -0.029070
  35 H     1.0000    0     1.008   -8.975115   -4.733688   -0.038436
  36 H     1.0000    0     1.008  -10.850048   -0.443643   -0.021193
  37 H     1.0000    0     1.008   -8.133278    3.241819    0.001051

--------------------------------
INTERNAL COORDINATES (ANGSTROEM)
--------------------------------
 C      0   0   0     0.000000000000     0.00000000     0.00000000
 C      1   0   0     1.411628479054     0.00000000     0.00000000
 C      2   1   0     1.424465100135   120.03696048     0.00000000
 C      3   2   1     1.417211839931   119.57480589   359.93618342
 C      4   3   2     1.415992813774   119.04164306     0.04276974
 C      5   4   3     1.354840813251   121.05854955     0.00000000
 C      1   2   3     1.432274337693   120.28053128   179.95974793
 C      7   1   2     1.416507596319   118.39101029   359.63244733
 C      8   7   1     1.406690122424   119.84195231     0.30861709
 C      9   8   7     1.374910271762   122.74359401     0.06812701
 C     10   9   8     1.456356004376   122.05268342   179.65649259
 C     11  10   9     1.410072807802   120.26623085   179.59479835
 C      3   2   1     1.418970115647   121.30968333   180.00189500
 C     13   3   2     1.389603575135   118.49965088   179.87580504
 C     14  13   3     1.388874070111   121.92093414     0.05016861
 C     15  14  13     1.371933139192   120.16368141     0.00000000
 C      7   1   2     1.408380149956   123.91761223   179.65132331
 C     17   7   1     1.369807456018   121.38864571   179.86863511
 C     18  17   7     1.399878463896   120.64171295   359.97016487
 C     19  18  17     1.366142332347   119.56719565     0.09906979
 C     11  10   9     1.400584099428   121.31306068   359.49132244
 C     21  11  10     1.375495672717   121.91373052   180.00113983
 C     22  21  11     1.387570576596   119.63580975     0.00000000
 C     23  22  21     1.375419582602   119.58118535     0.05349295
 H      5   4   3     1.080824082143   118.33403195   180.03568713
 H      6   5   4     1.077837370490   118.81989352   180.06836583
 H      9   8   7     1.078410686832   116.21107959   180.01963202
 H     14  13   3     1.077709600980   120.55772092   180.05659863
 H     15  14  13     1.080364012258   119.44511430   179.98943780
 H     16  15  14     1.080405036964   120.86843779   179.99137933
 H     17   7   1     1.078349291213   120.28557098   359.80595158
 H     18  17   7     1.080346467214   119.88405070   179.96781421
 H     19  18  17     1.080067804844   119.77097666   180.05334938
 H     20  19  18     1.080992991728   120.57092862   179.92751341
 H     21  11  10     1.077694326293   120.19632362   359.93496455
 H     22  21  11     1.080062793211   120.06934625   179.99445693
 H     23  22  21     1.080040969623   120.31440683   180.00580414
 H     24  23  22     1.077756866889   117.98381599   179.91541045

---------------------------
INTERNAL COORDINATES (A.U.)
---------------------------
 C      0   0   0     0.000000000000     0.00000000     0.00000000
 C      1   0   0     2.667591228255     0.00000000     0.00000000
 C      2   1   0     2.691848926584   120.03696048     0.00000000
 C      3   2   1     2.678142251221   119.57480589   359.93618342
 C      4   3   2     2.675838625634   119.04164306     0.04276974
 C      5   4   3     2.560278092103   121.05854955     0.00000000
 C      1   2   3     2.706606246883   120.28053128   179.95974793
 C      7   1   2     2.676811423662   118.39101029   359.63244733
 C      8   7   1     2.658259086673   119.84195231     0.30861709
 C      9   8   7     2.598203872346   122.74359401     0.06812701
 C     10   9   8     2.752114001762   122.05268342   179.65649259
 C     11  10   9     2.664651435635   120.26623085   179.59479835
 C      3   2   1     2.681464910791   121.30968333   180.00189500
 C     13   3   2     2.625970191723   118.49965088   179.87580504
 C     14  13   3     2.624591627015   121.92093414     0.05016861
 C     15  14  13     2.592577907124   120.16368141     0.00000000
 C      7   1   2     2.661452775867   123.91761223   179.65132331
 C     17   7   1     2.588560948076   121.38864571   179.86863511
 C     18  17   7     2.645386917537   120.64171295   359.97016487
 C     19  18  17     2.581634868093   119.56719565     0.09906979
 C     11  10   9     2.646720375444   121.31306068   359.49132244
 C     21  11  10     2.599310119829   121.91373052   180.00113983
 C     22  21  11     2.622128381254   119.63580975     0.00000000
 C     23  22  21     2.599166330351   119.58118535     0.05349295
 H      5   4   3     2.042461514196   118.33403195   180.03568713
 H      6   5   4     2.036817447132   118.81989352   180.06836583
 H      9   8   7     2.037900858006   116.21107959   180.01963202
 H     14  13   3     2.036575997749   120.55772092   180.05659863
 H     15  14  13     2.041592108111   119.44511430   179.98943780
 H     16  15  14     2.041669633572   120.86843779   179.99137933
 H     17   7   1     2.037784837101   120.28557098   359.80595158
 H     18  17   7     2.041558952784   119.88405070   179.96781421
 H     19  18  17     2.041032357221   119.77097666   180.05334938
 H     20  19  18     2.042780707054   120.57092862   179.92751341
 H     21  11  10     2.036547132775   120.19632362   359.93496455
 H     22  21  11     2.041022886607   120.06934625   179.99445693
 H     23  22  21     2.040981646003   120.31440683   180.00580414
 H     24  23  22     2.036665317374   117.98381599   179.91541045

---------------------
BASIS SET INFORMATION
---------------------
There are 2 groups of distinct atoms

 Group   1 Type C   : 7s4p1d contracted to 3s2p1d pattern {511/31/1}
 Group   2 Type H   : 4s1p contracted to 2s1p pattern {31/1}

Atom   0C    basis set group =>   1
Atom   1C    basis set group =>   1
Atom   2C    basis set group =>   1
Atom   3C    basis set group =>   1
Atom   4C    basis set group =>   1
Atom   5C    basis set group =>   1
Atom   6C    basis set group =>   1
Atom   7C    basis set group =>   1
Atom   8C    basis set group =>   1
Atom   9C    basis set group =>   1
Atom  10C    basis set group =>   1
Atom  11C    basis set group =>   1
Atom  12C    basis set group =>   1
Atom  13C    basis set group =>   1
Atom  14C    basis set group =>   1
Atom  15C    basis set group =>   1
Atom  16C    basis set group =>   1
Atom  17C    basis set group =>   1
Atom  18C    basis set group =>   1
Atom  19C    basis set group =>   1
Atom  20C    basis set group =>   1
Atom  21C    basis set group =>   1
Atom  22C    basis set group =>   1
Atom  23C    basis set group =>   1
Atom  24H    basis set group =>   2
Atom  25H    basis set group =>   2
Atom  26H    basis set group =>   2
Atom  27H    basis set group =>   2
Atom  28H    basis set group =>   2
Atom  29H    basis set group =>   2
Atom  30H    basis set group =>   2
Atom  31H    basis set group =>   2
Atom  32H    basis set group =>   2
Atom  33H    basis set group =>   2
Atom  34H    basis set group =>   2
Atom  35H    basis set group =>   2
Atom  36H    basis set group =>   2
Atom  37H    basis set group =>   2
---------------------------------
AUXILIARY/J BASIS SET INFORMATION
---------------------------------
There are 2 groups of distinct atoms

 Group   1 Type C   : 12s5p4d2f1g contracted to 6s4p3d1f1g pattern {711111/2111/211/2/1}
 Group   2 Type H   : 5s2p1d contracted to 3s1p1d pattern {311/2/1}

Atom   0C    basis set group =>   1
Atom   1C    basis set group =>   1
Atom   2C    basis set group =>   1
Atom   3C    basis set group =>   1
Atom   4C    basis set group =>   1
Atom   5C    basis set group =>   1
Atom   6C    basis set group =>   1
Atom   7C    basis set group =>   1
Atom   8C    basis set group =>   1
Atom   9C    basis set group =>   1
Atom  10C    basis set group =>   1
Atom  11C    basis set group =>   1
Atom  12C    basis set group =>   1
Atom  13C    basis set group =>   1
Atom  14C    basis set group =>   1
Atom  15C    basis set group =>   1
Atom  16C    basis set group =>   1
Atom  17C    basis set group =>   1
Atom  18C    basis set group =>   1
Atom  19C    basis set group =>   1
Atom  20C    basis set group =>   1
Atom  21C    basis set group =>   1
Atom  22C    basis set group =>   1
Atom  23C    basis set group =>   1
Atom  24H    basis set group =>   2
Atom  25H    basis set group =>   2
Atom  26H    basis set group =>   2
Atom  27H    basis set group =>   2
Atom  28H    basis set group =>   2
Atom  29H    basis set group =>   2
Atom  30H    basis set group =>   2
Atom  31H    basis set group =>   2
Atom  32H    basis set group =>   2
Atom  33H    basis set group =>   2
Atom  34H    basis set group =>   2
Atom  35H    basis set group =>   2
Atom  36H    basis set group =>   2
Atom  37H    basis set group =>   2
---------------------------------
AUXILIARY/C BASIS SET INFORMATION
---------------------------------
There are 2 groups of distinct atoms

 Group   1 Type C   : 8s6p5d3f contracted to 6s5p4d1f pattern {311111/21111/2111/3}
 Group   2 Type H   : 4s3p2d contracted to 3s2p1d pattern {211/21/2}

Atom   0C    basis set group =>   1
Atom   1C    basis set group =>   1
Atom   2C    basis set group =>   1
Atom   3C    basis set group =>   1
Atom   4C    basis set group =>   1
Atom   5C    basis set group =>   1
Atom   6C    basis set group =>   1
Atom   7C    basis set group =>   1
Atom   8C    basis set group =>   1
Atom   9C    basis set group =>   1
Atom  10C    basis set group =>   1
Atom  11C    basis set group =>   1
Atom  12C    basis set group =>   1
Atom  13C    basis set group =>   1
Atom  14C    basis set group =>   1
Atom  15C    basis set group =>   1
Atom  16C    basis set group =>   1
Atom  17C    basis set group =>   1
Atom  18C    basis set group =>   1
Atom  19C    basis set group =>   1
Atom  20C    basis set group =>   1
Atom  21C    basis set group =>   1
Atom  22C    basis set group =>   1
Atom  23C    basis set group =>   1
Atom  24H    basis set group =>   2
Atom  25H    basis set group =>   2
Atom  26H    basis set group =>   2
Atom  27H    basis set group =>   2
Atom  28H    basis set group =>   2
Atom  29H    basis set group =>   2
Atom  30H    basis set group =>   2
Atom  31H    basis set group =>   2
Atom  32H    basis set group =>   2
Atom  33H    basis set group =>   2
Atom  34H    basis set group =>   2
Atom  35H    basis set group =>   2
Atom  36H    basis set group =>   2
Atom  37H    basis set group =>   2


           ************************************************************
           *        Program running with 104 parallel MPI-processes   *
           *              working on a common directory               *
           ************************************************************
------------------------------------------------------------------------------
                             ORCA STARTUP CALCULATIONS
                           -- RI-GTO INTEGRALS CHOSEN --
------------------------------------------------------------------------------
------------------------------------------------------------------------------
                   ___                                                        
                  /   \      - P O W E R E D   B Y -                         
                 /     \                                                     
                 |  |  |   _    _      __       _____    __    __             
                 |  |  |  | |  | |    /  \     |  _  \  |  |  /  |          
                  \  \/   | |  | |   /    \    | | | |  |  | /  /          
                 / \  \   | |__| |  /  /\  \   | |_| |  |  |/  /          
                |  |  |   |  __  | /  /__\  \  |    /   |      \           
                |  |  |   | |  | | |   __   |  |    \   |  |\   \          
                \     /   | |  | | |  |  |  |  | |\  \  |  | \   \       
                 \___/    |_|  |_| |__|  |__|  |_| \__\ |__|  \__/        
                                                                              
                      - O R C A' S   B I G   F R I E N D -                    
                                      &                                       
                       - I N T E G R A L  F E E D E R -                       
                                                                              
 v1 FN, 2020, v2 2021, v3 2022-2024                                           
------------------------------------------------------------------------------


----------------------
SHARK INTEGRAL PACKAGE
----------------------

Number of atoms                             ...     38
Number of basis functions                   ...    406
Number of shells                            ...    186
Maximum angular momentum                    ...      2
Integral batch strategy                     ... SHARK/LIBINT Hybrid
RI-J (if used) integral strategy            ... SPLIT-RIJ (Revised 2003 algorithm where possible)
Printlevel                                  ...      1
Contraction scheme used                     ... SEGMENTED contraction
Prescreening option                         ... SCHWARTZ
   Thresh                                   ... 1.000e-10
   Tcut                                     ... 1.000e-11
   Tpresel                                  ... 1.000e-11 
Coulomb Range Separation                    ... NOT USED
Exchange Range Separation                   ... NOT USED
Multipole approximations                    ... NOT USED
Finite Nucleus Model                        ... NOT USED
CABS basis                                  ... NOT available
Auxiliary Coulomb fitting basis             ... AVAILABLE
   # of basis functions in Aux-J            ...   1330
   # of shells in Aux-J                     ...    430
   Maximum angular momentum in Aux-J        ...      4
Auxiliary J/K fitting basis                 ... NOT available
Auxiliary Correlation fitting basis         ... AVAILABLE
   # of basis functions in Aux-C            ...   1348
   # of shells in Aux-C                     ...    468
   Maximum angular momentum in Aux-C        ...      3
Auxiliary 'external' fitting basis          ... NOT available

Checking pre-screening integrals            ... done (  0.0 sec) Dimension = 186
Check shell pair data                       ... done (  0.0 sec)
Shell pair information
Shell pair cut-off parameter TPreSel        ...   1.0e-11
Total number of shell pairs                 ...     17391
Shell pairs after pre-screening             ...     12843
Total number of primitive shell pairs       ...     64615
Primitive shell pairs kept                  ...     30444
          la=0 lb=0:   3745 shell pairs
          la=1 lb=0:   4684 shell pairs
          la=1 lb=1:   1539 shell pairs
          la=2 lb=0:   1635 shell pairs
          la=2 lb=1:   1064 shell pairs
          la=2 lb=2:    176 shell pairs

Calculating one electron integrals          ... done (  0.6 sec)
Calculating RI/J V-Matrix + Cholesky decomp.... done (  0.4 sec)
Calculating RI/C V-Matrix + Cholesky decomp.... done (  0.4 sec)
Calculating Nuclear repulsion               ... done (  0.0 sec) ENN=   1814.456324803226 Eh

Diagonalization of the overlap matrix:
Smallest eigenvalue                        ... 1.022e-04
Time for diagonalization                   ...    0.020 sec
Threshold for overlap eigenvalues          ... 1.000e-07
Number of eigenvalues below threshold      ... 0
Time for construction of square roots      ...    0.013 sec
Total time needed                          ...    0.046 sec

-------------------
DFT GRID GENERATION
-------------------

General Integration Accuracy     IntAcc      ... 4.959
Radial Grid Type                 RadialGrid  ... OptM3 with GC (2021)
Angular Grid (max. ang.)         AngularGrid ... 6 (Lebedev-590)
Angular grid pruning method      GridPruning ... 4 (adaptive)
Weight generation scheme         WeightScheme... mBecke (2022)
Basis function cutoff            BFCut       ... 1.0000e-10
Integration weight cutoff        WCut        ... 1.0000e-14
Partially contracted basis set               ... off
Rotationally invariant grid construction     ... off
Angular grids for H and He will be reduced by one unit

Total number of grid points                  ...   457151
Total number of batches                      ...     7162
Average number of points per batch           ...       63
Average number of grid points per atom       ...    12030

--------------------
COSX GRID GENERATION
--------------------

GRIDX 1
-------
General Integration Accuracy     IntAcc      ... 4.020
Radial Grid Type                 RadialGrid  ... OptM3 with GC (2021)
Angular Grid (max. ang.)         AngularGrid ... 2 (Lebedev-110)
Angular grid pruning method      GridPruning ... 4 (adaptive)
Weight generation scheme         WeightScheme... mBecke (2022)
Basis function cutoff            BFCut       ... 1.0000e-10
Integration weight cutoff        WCut        ... 1.0000e-14
Partially contracted basis set               ... on
Rotationally invariant grid construction     ... off
Angular grids for H and He will be reduced by one unit

Total number of grid points                  ...    52091
Total number of batches                      ...      423
Average number of points per batch           ...      123
Average number of grid points per atom       ...     1371
UseSFitting                                  ... on

GRIDX 2
-------
General Integration Accuracy     IntAcc      ... 4.338
Radial Grid Type                 RadialGrid  ... OptM3 with GC (2021)
Angular Grid (max. ang.)         AngularGrid ... 3 (Lebedev-194)
Angular grid pruning method      GridPruning ... 4 (adaptive)
Weight generation scheme         WeightScheme... mBecke (2022)
Basis function cutoff            BFCut       ... 1.0000e-10
Integration weight cutoff        WCut        ... 1.0000e-14
Partially contracted basis set               ... on
Rotationally invariant grid construction     ... off
Angular grids for H and He will be reduced by one unit

Total number of grid points                  ...   114171
Total number of batches                      ...      912
Average number of points per batch           ...      125
Average number of grid points per atom       ...     3004
UseSFitting                                  ... on

GRIDX 3
-------
General Integration Accuracy     IntAcc      ... 4.871
Radial Grid Type                 RadialGrid  ... OptM3 with GC (2021)
Angular Grid (max. ang.)         AngularGrid ... 4 (Lebedev-302)
Angular grid pruning method      GridPruning ... 4 (adaptive)
Weight generation scheme         WeightScheme... mBecke (2022)
Basis function cutoff            BFCut       ... 1.0000e-10
Integration weight cutoff        WCut        ... 1.0000e-14
Partially contracted basis set               ... on
Rotationally invariant grid construction     ... off
Angular grids for H and He will be reduced by one unit

Total number of grid points                  ...   210811
Total number of batches                      ...     1667
Average number of points per batch           ...      126
Average number of grid points per atom       ...     5548
UseSFitting                                  ... on
Initializing property integral containers    ... done (  0.0 sec)

SHARK setup successfully completed in   7.9 seconds

Maximum memory used throughout the entire STARTUP-calculation: 89.1 MB


           ************************************************************
           *        Program running with 104 parallel MPI-processes   *
           *              working on a common directory               *
           ************************************************************
-------------------------------------------------------------------------------
                                 ORCA GUESS
                   Start orbitals & Density for SCF / CASSCF
-------------------------------------------------------------------------------

------------
SCF SETTINGS
------------
Hamiltonian:
 Density Functional     Method          .... DFT(GTOs)
 Exchange Functional    Exchange        .... PBE
   PBE kappa parameter   XKappa         ....  0.804000
   PBE mue parameter    XMuePBE         ....  0.219520
 Correlation Functional Correlation     .... P86
 LDA part of GGA corr.  LDAOpt          .... VWN-5
 Gradients option       PostSCFGGA      .... off
 Hybrid DFT is turned on
   Fraction HF Exchange ScalHFX         ....  0.690000
   Scaling of DF-GGA-X  ScalDFX         ....  0.310000
   Scaling of DF-GGA-C  ScalDFC         ....  0.403800
   Scaling of DF-LDA-C  ScalLDAC        ....  0.403800
   Perturbative correction              ....  1.000000
 RI-approximation to the Coulomb term is turned on
   Number of AuxJ basis functions       .... 1330
   RIJ-COSX (HFX calculated with COS-X)).... on


General Settings:
 Integral files         IntName         .... hc_c24h14_0pent_8_dz_ri
 Hartree-Fock type      HFTyp           .... RHF
 Total Charge           Charge          ....    0
 Multiplicity           Mult            ....    1
 Number of Electrons    NEL             ....  158
 Basis Dimension        Dim             ....  406
 Nuclear Repulsion      ENuc            ....   1814.4563248032 Eh

Convergence Acceleration:
 AO-DIIS                CNVDIIS         .... on
   Start iteration      DIISMaxIt       ....    12
   Startup error        DIISStart       ....  0.200000
   # of expansion vecs  DIISMaxEq       ....     5
   Bias factor          DIISBfac        ....   1.050
   Max. coefficient     DIISMaxC        ....  10.000
 MO-DIIS                CNVKDIIS        .... off
 Trust-Rad. Augm. Hess. CNVTRAH         .... auto
   Auto Start mean grad. ratio tolernc. ....  1.125000
   Auto Start start iteration           ....    50
   Auto Start num. interpolation iter.  ....    10
   Max. Number of Micro iterations      ....    24
   Max. Number of Macro iterations      .... Maxiter - #DIIS iter
   Number of Davidson start vectors     ....     2
   Converg. threshold    (grad. norm)   ....   5.000e-05
   Grad. Scal. Fac. for Micro threshold ....   0.100
   Minimum threshold for Micro iter.    ....   1.000e-02
   NR start threshold (gradient norm)   ....   1.000e-04
   Initial trust radius                 ....   0.400
   Minimum AH scaling param. (alpha)    ....   1.000
   Maximum AH scaling param. (alpha)    .... 1000.000
   Quad. conv. algorithm                .... NR
   White noise on init. David. guess    .... on
   Maximum white noise                  ....   0.010
   Pseudo random numbers                .... off
   Inactive MOs                         .... canonical
   Orbital update algorithm             .... Taylor
   Preconditioner                       .... Diag
   Full preconditioner red. dimension   ....   250
 SOSCF                  CNVSOSCF        .... on
   Start iteration      SOSCFMaxIt      ....   150
   Startup grad/error   SOSCFStart      ....  0.003300
   Hessian update       SOSCFHessUp     .... L-BFGS
 Level Shifting         CNVShift        .... on
   Level shift para.    LevelShift      ....    0.2500
   Turn off err/grad.   ShiftErr        ....    0.0010
 Zerner damping         CNVZerner       .... off
 Static damping         CNVDamp         .... on
   Fraction old density DampFac         ....    0.7000
   Max. Damping (<1)    DampMax         ....    0.9800
   Min. Damping (>=0)   DampMin         ....    0.0000
   Turn off err/grad.   DampErr         ....    0.1000

SCF Procedure:
 Maximum # iterations   MaxIter         ....   125
 SCF integral mode      SCFMode         .... Direct
   Integral package                     .... SHARK and LIBINT hybrid scheme
 Reset frequency        DirectResetFreq ....    20
 Integral Threshold     Thresh          ....  1.000e-10 Eh
 Primitive CutOff       TCut            ....  1.000e-11 Eh

Convergence Tolerance:
 Convergence Check Mode ConvCheckMode   .... Total+1el-Energy
 Convergence forced     ConvForced      .... 0
 Energy Change          TolE            ....  1.000e-06 Eh
 1-El. energy change                    ....  1.000e-03 Eh
 Orbital Gradient       TolG            ....  5.000e-05
 Orbital Rotation angle TolX            ....  5.000e-05
 DIIS Error             TolErr          ....  1.000e-06

------------------------------
INITIAL GUESS: MODEL POTENTIAL
------------------------------
Loading Hartree-Fock densities                     ... done
Calculating cut-offs                               ... done
Initializing the effective Hamiltonian             ... done
Setting up the integral package (SHARK)            ... done
Starting the Coulomb interaction                   ... done (   0.1 sec)
Making the grid                                    ... done (   2.4 sec)
Mapping shells                                     ... done
Starting the XC term evaluation                    ... done (   0.4 sec)
  promolecular density results
     # of electrons  =    157.981956205
     EX              =   -127.050155415
     EC              =      0.198380661
     EX+EC           =   -126.851774754
Transforming the Hamiltonian                       ... done (   0.0 sec)
Diagonalizing the Hamiltonian                      ... done (   0.0 sec)
Back transforming the eigenvectors                 ... done (   0.0 sec)
Now organizing SCF variables                       ... done
                      ------------------
                      INITIAL GUESS DONE (   3.2 sec)
                      ------------------
             **** ENERGY FILE WAS UPDATED (hc_c24h14_0pent_8_dz_ri.en.tmp) ****
Finished Guess after  17.8 sec
Maximum memory used throughout the entire GUESS-calculation: 30.3 MB


           ************************************************************
           *        Program running with 104 parallel MPI-processes   *
           *              working on a common directory               *
           ************************************************************

-------------------------------------------------------------------------------------------
                                      ORCA LEAN-SCF
                              memory conserving SCF solver
-------------------------------------------------------------------------------------------

----------------------------------------D-I-I-S--------------------------------------------
Iteration    Energy (Eh)           Delta-E    RMSDP     MaxDP     DIISErr   Damp  Time(sec)
-------------------------------------------------------------------------------------------
               ***  Starting incremental Fock matrix formation  ***
    1    -918.1501792383455722     0.00e+00  4.14e-03  1.09e-01  1.20e-01  0.700   1.7
    2    -918.2977403800564389    -1.48e-01  3.14e-03  8.15e-02  7.51e-02  0.700   1.8
                               ***Turning on AO-DIIS***
    3    -918.3862319519926132    -8.85e-02  2.10e-03  5.73e-02  4.56e-02  0.700   1.7
    4    -918.4418077365057798    -5.56e-02  4.91e-03  1.36e-01  3.11e-02  0.000   1.7
                              *** Initializing SOSCF ***
---------------------------------------S-O-S-C-F--------------------------------------
Iteration    Energy (Eh)           Delta-E    RMSDP     MaxDP     MaxGrad    Time(sec)
--------------------------------------------------------------------------------------
    5    -918.5627326281482965    -1.21e-01  1.93e-04  4.89e-03  2.86e-03     1.7
               *** Restarting incremental Fock matrix formation ***
    6    -918.5629471882139114    -2.15e-04  1.02e-04  2.66e-03  9.88e-04     1.6
    7    -918.5630115256531099    -6.43e-05  7.49e-05  1.50e-03  6.52e-04     1.6
    8    -918.5630358338935366    -2.43e-05  2.90e-05  6.49e-04  1.96e-04     1.6
    9    -918.5630393262540565    -3.49e-06  9.46e-06  3.02e-04  4.61e-05     1.6
   10    -918.5630397219865699    -3.96e-07  3.72e-06  1.03e-04  2.65e-05     1.5
                 **** Energy Check signals convergence ****

               *****************************************************
               *                     SUCCESS                       *
               *           SCF CONVERGED AFTER  10 CYCLES          *
               *****************************************************

Recomputing exchange energy using gridx3       ... done (    0.811 sec)
Old exchange energy                            :    -89.358464247 Eh
New exchange energy                            :    -89.358539926 Eh
Exchange energy change after final integration :     -0.000075679 Eh
Total energy after final integration           :   -918.563115401 Eh
             **** ENERGY FILE WAS UPDATED (hc_c24h14_0pent_8_dz_ri.en.tmp) ****

----------------
TOTAL SCF ENERGY
----------------

Total Energy       :       -918.56311540075126 Eh          -24995.37311 eV

Components:
Nuclear Repulsion  :       1814.45632480322593 Eh           49373.86672 eV
Electronic Energy  :      -2733.01936452521250 Eh          -74369.23777 eV
One Electron Energy:      -4847.40169160693131 Eh         -131904.50592 eV
Two Electron Energy:       2114.38232708171881 Eh           57535.26816 eV

Virial components:
Potential Energy   :      -1831.00063295004657 Eh          -49824.06023 eV
Kinetic Energy     :        912.43751754929542 Eh           24828.68712 eV
Virial Ratio       :          2.00671344364259

DFT components:
N(Alpha)           :       78.999995947959 electrons
N(Beta)            :       78.999995947959 electrons
N(Total)           :      157.999991895917 electrons
E(X)               :      -39.975327354655 Eh       
E(C)               :       -2.358725957397 Eh       
E(XC)              :      -42.334053312052 Eh       

---------------
SCF CONVERGENCE
---------------

  Last Energy change         ...    3.9573e-07  Tolerance :   1.0000e-06
  Last MAX-Density change    ...    1.0273e-04  Tolerance :   1.0000e-05
  Last RMS-Density change    ...    3.7217e-06  Tolerance :   1.0000e-06
  Last DIIS Error            ...    2.8565e-03  Tolerance :   1.0000e-06
  Last Orbital Gradient      ...    2.6546e-05  Tolerance :   5.0000e-05
  Last Orbital Rotation      ...    7.2808e-05  Tolerance :   5.0000e-05


----------------
ORBITAL ENERGIES
----------------

  NO   OCC          E(Eh)            E(eV) 
   0   2.0000     -10.839947      -294.9700 
   1   2.0000     -10.839669      -294.9624 
   2   2.0000     -10.839441      -294.9562 
   3   2.0000     -10.839103      -294.9470 
   4   2.0000     -10.838684      -294.9356 
   5   2.0000     -10.838257      -294.9240 
   6   2.0000     -10.837000      -294.8898 
   7   2.0000     -10.836746      -294.8828 
   8   2.0000     -10.833950      -294.8068 
   9   2.0000     -10.833700      -294.8000 
  10   2.0000     -10.829292      -294.6800 
  11   2.0000     -10.829020      -294.6726 
  12   2.0000     -10.828671      -294.6631 
  13   2.0000     -10.828410      -294.6560 
  14   2.0000     -10.828214      -294.6507 
  15   2.0000     -10.828172      -294.6495 
  16   2.0000     -10.828158      -294.6492 
  17   2.0000     -10.828011      -294.6452 
  18   2.0000     -10.827691      -294.6365 
  19   2.0000     -10.827568      -294.6331 
  20   2.0000     -10.827179      -294.6225 
  21   2.0000     -10.827023      -294.6183 
  22   2.0000     -10.826867      -294.6140 
  23   2.0000     -10.826529      -294.6048 
  24   2.0000      -1.089700       -29.6522 
  25   2.0000      -1.057370       -28.7725 
  26   2.0000      -1.045137       -28.4396 
  27   2.0000      -1.012687       -27.5566 
  28   2.0000      -0.991603       -26.9829 
  29   2.0000      -0.959784       -26.1170 
  30   2.0000      -0.946890       -25.7662 
  31   2.0000      -0.926850       -25.2209 
  32   2.0000      -0.910653       -24.7801 
  33   2.0000      -0.891883       -24.2694 
  34   2.0000      -0.883960       -24.0538 
  35   2.0000      -0.861146       -23.4330 
  36   2.0000      -0.790080       -21.4992 
  37   2.0000      -0.778446       -21.1826 
  38   2.0000      -0.773921       -21.0595 
  39   2.0000      -0.769848       -20.9486 
  40   2.0000      -0.737731       -20.0747 
  41   2.0000      -0.717383       -19.5210 
  42   2.0000      -0.699610       -19.0373 
  43   2.0000      -0.667492       -18.1634 
  44   2.0000      -0.663612       -18.0578 
  45   2.0000      -0.643970       -17.5233 
  46   2.0000      -0.631713       -17.1898 
  47   2.0000      -0.605258       -16.4699 
  48   2.0000      -0.595213       -16.1966 
  49   2.0000      -0.591018       -16.0824 
  50   2.0000      -0.581580       -15.8256 
  51   2.0000      -0.567764       -15.4496 
  52   2.0000      -0.555114       -15.1054 
  53   2.0000      -0.548057       -14.9134 
  54   2.0000      -0.536406       -14.5964 
  55   2.0000      -0.532483       -14.4896 
  56   2.0000      -0.528623       -14.3846 
  57   2.0000      -0.522106       -14.2072 
  58   2.0000      -0.520019       -14.1504 
  59   2.0000      -0.509866       -13.8742 
  60   2.0000      -0.496316       -13.5054 
  61   2.0000      -0.483064       -13.1448 
  62   2.0000      -0.481976       -13.1152 
  63   2.0000      -0.471609       -12.8331 
  64   2.0000      -0.467052       -12.7091 
  65   2.0000      -0.459863       -12.5135 
  66   2.0000      -0.451865       -12.2959 
  67   2.0000      -0.441340       -12.0095 
  68   2.0000      -0.425140       -11.5687 
  69   2.0000      -0.417226       -11.3533 
  70   2.0000      -0.410483       -11.1698 
  71   2.0000      -0.402309       -10.9474 
  72   2.0000      -0.366691        -9.9782 
  73   2.0000      -0.344420        -9.3722 
  74   2.0000      -0.329481        -8.9656 
  75   2.0000      -0.310816        -8.4577 
  76   2.0000      -0.287375        -7.8199 
  77   2.0000      -0.269609        -7.3364 
  78   2.0000      -0.235527        -6.4090 
  79   0.0000      -0.000595        -0.0162 
  80   0.0000       0.031431         0.8553 
  81   0.0000       0.039312         1.0697 
  82   0.0000       0.065102         1.7715 
  83   0.0000       0.086592         2.3563 
  84   0.0000       0.113940         3.1005 
  85   0.0000       0.133741         3.6393 
  86   0.0000       0.136406         3.7118 
  87   0.0000       0.140786         3.8310 
  88   0.0000       0.142523         3.8782 
  89   0.0000       0.160098         4.3565 
*Only the first 10 virtual orbitals were printed.
-------
TIMINGS
-------

Total SCF time: 0 days 0 hours 0 min 32 sec 

Total time                  ....      32.610 sec
Sum of individual times     ....      32.390 sec  ( 99.3%)

SCF preparation             ....      14.874 sec  ( 45.6%)
Fock matrix formation       ....      13.098 sec  ( 40.2%)
  Startup                   ....       1.075 sec  (  8.2% of F)
  Split-RI-J                ....       1.998 sec  ( 15.3% of F)
  Chain of spheres X        ....       4.821 sec  ( 36.8% of F)
  XC integration            ....       3.894 sec  ( 29.7% of F)
    XC Preparation          ....       0.000 sec  (  0.0% of XC)
    Basis function eval.    ....       0.297 sec  (  7.6% of XC)
    Density eval.           ....       0.162 sec  (  4.2% of XC)
    XC-Functional eval.     ....       0.042 sec  (  1.1% of XC)
    XC-Potential eval.      ....       0.146 sec  (  3.8% of XC)
Diagonalization             ....       0.000 sec  (  0.0%)
Density matrix formation    ....       1.089 sec  (  3.3%)
Total Energy calculation    ....       0.707 sec  (  2.2%)
Population analysis         ....       0.000 sec  (  0.0%)
Orbital Transformation      ....       0.320 sec  (  1.0%)
Orbital Orthonormalization  ....       0.000 sec  (  0.0%)
DIIS solution               ....       1.398 sec  (  4.3%)
SOSCF solution              ....       0.871 sec  (  2.7%)
Finished LeanSCF after  32.9 sec

Maximum memory used throughout the entire LEANSCF-calculation: 70.9 MB


           ************************************************************
           *        Program running with 104 parallel MPI-processes   *
           *              working on a common directory               *
           ************************************************************

------------------------------------------------------------------------------
                                ORCA  MP2 
------------------------------------------------------------------------------


-------------
RI-MP2 ENERGY
-------------
Dimension of the orbital basis            ...  406
Dimension of the AuxC basis               ... 1348
Memory devoted to MP2                     ... 4096 MB   
Data format for matrix containers         ... DOUBLE
Compression type for matrix containers    ... UNCOMPRESSED
Scaling for aa/bb pairs                   ...   5.710e-02
Scaling for ab pairs                      ...   5.979e-01
Overall scaling of the MP2 energy         ...   1.000e+00

-----------------------
SHARK RI TRANSFORMATION
-----------------------

Number of basis functions                ...    406
Number of aux functions                  ...   1348
Number of operators                      ...      1
Generation of IJK                        ... NO
Generation of IAK                        ... YES
Generation of ABK                        ... NO
Orbital Range Operator  0:    0-  78 to   79- 405

Aux basis identifier                     ...   AUXC
Contraction scheme used                  ... SEGMENTED
Do orthogonalization                     ... YES
All operator combinations                ... NO
Transpose (ia|K)                         ... NO
Integral generator used                  ... LIBINT
Starting integral generation + trafo... 
Half trafo (segmented) done. Total time =  0.3 sec. integrals=  0.1 sec trafo=  0.0 sec
Integral generation and half transformation done (  0.3 sec)

Reading or making V^(-1/2)          ... done (  0.1 sec)
Sorting IAK integrals               ... done (  1.5 sec)

SHARK RI integral transformation done. Total time =  2.0 sec.

Opening buffers                              ... done

Starting loop over batches of integrals:

Operator 0  - window                       ... (  0- 78)x( 79-405)
Operator 0  - Memory available             ...  4096 MB
Operator 0  - Memory needed per MO         ...   3.4 MB
Operator 0  - Number of orbitals per batch ... 1
Operator 0  - Number of batches            ... 1

OPERATOR  0   PASS   0:  MOs     0 ...    0 +    1 ...    1 +    2 ...    2 +    3 ...    3
                            +    4 ...    4 +    5 ...    5 +    6 ...    6 +    7 ...    7
                            +    8 ...    8 +    9 ...    9 +   10 ...   10 +   11 ...   11
                            +   12 ...   12 +   13 ...   13 +   14 ...   14 +   15 ...   15
                            +   16 ...   16 +   17 ...   17 +   18 ...   18 +   19 ...   19
                            +   20 ...   20 +   21 ...   21 +   22 ...   22 +   23 ...   23
                            +   24 ...   24 +   25 ...   25 +   26 ...   26 +   27 ...   27
                            +   28 ...   28 +   29 ...   29 +   30 ...   30 +   31 ...   31
                            +   32 ...   32 +   33 ...   33 +   34 ...   34 +   35 ...   35
                            +   36 ...   36 +   37 ...   37 +   38 ...   38 +   39 ...   39
                            +   40 ...   40 +   41 ...   41 +   42 ...   42 +   43 ...   43
                            +   44 ...   44 +   45 ...   45 +   46 ...   46 +   47 ...   47
                            +   48 ...   48 +   49 ...   49 +   50 ...   50 +   51 ...   51
                            +   52 ...   52 +   53 ...   53 +   54 ...   54 +   55 ...   55
                            +   56 ...   56 +   57 ...   57 +   58 ...   58 +   59 ...   59
                            +   60 ...   60 +   61 ...   61 +   62 ...   62 +   63 ...   63
                            +   64 ...   64 +   65 ...   65 +   66 ...   66 +   67 ...   67
                            +   68 ...   68 +   69 ...   69 +   70 ...   70 +   71 ...   71
                            +   72 ...   72 +   73 ...   73 +   74 ...   74 +   75 ...   75
                            +   76 ...   76 +   77 ...   77 +   78 ...   78
  Reading integrals       ... ok
Time spent in pair loops =     0.722 sec

-----------------------------------------------
 RI-MP2 CORRELATION ENERGY:     -1.604986356 Eh
-----------------------------------------------


-------
TIMINGS
-------

Total time                :    3.262 sec
Integral trafo            :    2.050 sec ( 62.8%)
I/O of integrals          :    0.001 sec (  0.0%)
K(i,j) operators          :    0.008 sec (  0.2%)
T(i,j) pair energies      :    0.001 sec (  0.0%)
V**(-1/2)                 :    0.488 sec ( 15.0%)


---------------------------------------
MP2 TOTAL ENERGY:     -920.168101757 Eh
---------------------------------------

Maximum memory used throughout the entire MP2-calculation: 40.2 MB


-------------------------------------------------------------------------------
                          DFT DISPERSION CORRECTION                            
                                                                               
                                DFTD4 V3.4.0                                   
-------------------------------------------------------------------------------
The REV-DSD-PBEP86-2021 functional is recognized
A user input s6-coefficient scaling factor has been recognized
A user input a1-coefficient scaling factor has been recognized
A user input s8-coefficient scaling factor has been recognized
A user input a2-coefficient scaling factor has been recognized
A user input s9-coefficient scaling factor has been recognized
Active option DFTDOPT                   ...         5   

-------------------------   ----------------
Dispersion correction           -0.038568784
-------------------------   ----------------


-------------------------   --------------------
FINAL SINGLE POINT ENERGY      -920.206670540920
-------------------------   --------------------



           ************************************************************
           *        Program running with 104 parallel MPI-processes   *
           *              working on a common directory               *
           ************************************************************

------------------------------------------------------------------------------
                              ORCA PROPERTY CALCULATIONS
------------------------------------------------------------------------------

GBWName                                 ... hc_c24h14_0pent_8_dz_ri.gbw
Number of atoms                         ...     38
Number of basis functions               ...    406
Max core memory                         ...   1024 MB

Electric properties:
Dipole moment                           ... YES
Quadrupole moment                       ...  NO
Static polarizability (Dipole/Dipole)   ...  NO
Static polarizability (Dipole/Quad.)    ...  NO
Static polarizability (Quad./Quad.)     ...  NO
Static polarizability (Velocity)        ...  NO

Atomic electric properties:
Dipole moment                           ...  NO
Quadrupole moment                       ...  NO
Static polarizability                   ...  NO

Choice of electric origin               ... Center of mass
Position of electric origin             ...     0.010150     0.082230     0.000994

General magnetic properties:
Magnetizability                         ...  NO

EPR properties:
g-Tensor (aka g-matrix)                 ...  NO
Zero-Field splitting spin-orbit         ...  NO
Zero-field splitting spin-spin          ...  NO
Hyperfine couplings                     ...  NO (   0 nuclei)
Quadrupole couplings                    ...  NO (   0 nuclei)
Contact density                         ...  NO (   0 nuclei)

NMR properties:
Chemical shifts                         ...  NO (   0 nuclei)
Spin-rotation constants                 ...  NO (   0 nuclei)
Spin-spin couplings                     ...  NO (   0 nuclei,    0 pairs)

Choice of magnetic origin               ... GIAO
Position of magnetic origin             ...     0.000000     0.000000     0.000000

Properties with geometric perturbations:
SCF Hessian                             ...  NO
IR spectrum                             ...  NO
VCD spectrum                            ...  NO
X-ray spectroscopy properties:
SCF XES/XAS/RIXS spectra                ...  NO


-------------
DIPOLE MOMENT
-------------

Method             : SCF
Type of density    : Electron Density
Multiplicity       :   1
Irrep              :   0
Energy             :  -918.5631154007512578 Eh
Relativity type    : 
Basis              : AO
                                X                 Y                 Z
Electronic contribution:      0.183871741       1.681943522       0.014117770
Nuclear contribution   :     -0.207994413      -1.694457243      -0.015352843
                        -----------------------------------------
Total Dipole Moment    :     -0.024122672      -0.012513720      -0.001235073
                        -----------------------------------------
Magnitude (a.u.)       :      0.027203344
Magnitude (Debye)      :      0.069145405



--------------------
Rotational spectrum 
--------------------
 
Rotational constants in cm-1:             0.013101             0.007308             0.004691 
Rotational constants in MHz :           392.745125           219.095234           140.640013 

Dipole components along the rotational axes: 
x,y,z [a.u.] :    -0.013405    -0.023641    -0.001198 
x,y,z [Debye]:    -0.034074    -0.060090    -0.003046 

 

Dipole moment calculation done in   0.1 sec 

Maximum memory used throughout the entire PROP-calculation: 24.6 MB

--------------------------------
SUGGESTED CITATIONS FOR THIS RUN
--------------------------------

Below you find a list of papers that are relevant to this ORCA run
We neither can nor want to force you to cite these papers, but we appreciate if you do
You receive ORCA, which is the product of decades of hard work by many enthusiastic individuals, for free
The only thing we kindly ask in return is that you cite our papers,
We deeply appreciate it, if you show your appreciation for ORCA by not just citing the generic ORCA reference.

Please note that relegating all ORCA citations to the supporting information does *not* help us.
SI sections are not indexed - citations you put there will not count into any citation statistics
But we need these citations in order to attract the funding resources that allow us to do what we are doing

Therefore, if you are a happy ORCA user, please consider citing a few of the papers listed below in the main body of your paper

In addition to the list printed below, the program has created the file hc_c24h14_0pent_8_dz_ri.bibtex that contains the list in bibtex format
You can import this file easily into all common literature databanks and citation aid programs


List of essential papers. We consider these as the minimum necessary citations

  1. Neese,F.
     Software update: the ORCA program system, version 5.0
     WIRES Comput. Molec. Sci., 2022 12(1)e1606
     doi.org/10.1002/wcms.1606

List of papers to cite with high priority. The work reported in these papers was absolutely
necessary for this run to complete.
Our perspective: the developers of density functionals and basis sets usually get cited in chemistry papers
Good! But without the algorithms to do something with them, the functionals or basis sets would not do anything.
Hence, in our opinion, the algorithm design and method developments papers are equally worthy of getting cited

  1. Neese,F.
     An improvement of the resolution of the identity approximation for the formation of the Coulomb matrix
     J. Comp. Chem., 2003 24(14)1740-1747
     doi.org/10.1002/jcc.10318
  2. Neese,F.; Wennmohs,F.; Hansen,A.; Becker,U.
     Efficient, approximate and parallel Hartree-Fock and hybrid DFT calculations. A 'chain-of-spheres' algorithm for the Hartree-Fock exchange
     Chem. Phys., 2009 356(1-3)98-109
     doi.org/10.1016/j.chemphys.2008.10.036
  3. Kossmann,S.; Neese,F.
     Efficient Structure Optimization with Second-Order Many-Body Perturbation Theory: The RIJCOSX-MP2 Method
     J. Theo. Comp. Chem., 2010 6 2325-2338
     doi.org/10.1021/ct100199k
  4. Helmich-Paris,B.; de Souza,B.; Neese,F.; Izsák,R.
     An improved chain of spheres for exchange algorithm
     J. Chem. Phys., 2021 155 104109
     doi.org/doi: 10.1063/5.0058766.
  5. Neese,F.
     The SHARK Integral Generation and Digestion System
     J. Comp. Chem., 2022  1-16
     doi.org/10.1002/jcc.26942
  6. Caldeweyher,E.; Bannwarth,C.; Grimme,S.
     Extension of the D3 dispersion coefficient model
     J. Chem. Phys., 2017 147 034112
     doi.org/10.1063/1.4993215
  7. Caldeweyher,E.; Ehlert,S.; Hansen,A.; Neugebauer,H.; Spicher,S.; Bannwarth,C.; Grimme,S.
     A generally applicable atomic-charge dependent London dispersion correction
     J. Chem. Phys., 2019 150 154122
     doi.org/10.1063/1.5090222
  8. Caldeweyher,E.; Mewes,J.; Ehlert,S.; Grimme,S.
     Extension and evaluation of the D4 London-dispersion model for periodic systems
     Phys. Chem. Chem. Phys., 2020 22(16)8499-8512
     doi.org/10.1039/D0CP00502A
  9. Wittmann,L.; Gordiy,I.; Friede,M.; Helmich-Paris,B.; Grimme,S.; Hansen,A.; Bursch,M.
     Extension of the D3 and D4 London Dispersion Corrections to the full Actinides Series
     Phys. Chem. Chem. Phys., 2024 26(32)21379-21394
     doi.org/https://doi.org/10.1039/D4CP01514B 

List of suggested additional citations. These are papers that are important in the 'surrounding' of 
of this run, or papers that preceded the highly important papers. If you like your results we are grateful for a citation.

  1. Izsak,R.; Neese,F.
     An overlap fitted chain of spheres exchange method
     J. Chem. Phys., 2011 135 144105
     doi.org/10.1063/1.3646921
  2. Izsak,R.; Hansen,A.; Neese,F.
     The resolution of identity and chain of spheres approximations for the LPNO-CCSD singles Fock term
     Molec. Phys., 2012 110 2413-2417
     doi.org/10.1080/00268976.2012.687466
  3. Neese,F.
     The ORCA program system
     WIRES Comput. Molec. Sci., 2012 2(1)73-78
     doi.org/10.1002/wcms.81
  4. Izsak,R.; Neese,F.; Klopper,W.
     Robust fitting techniques in the chain of spheres approximation to the Fock exchange: The role of the complementary space
     J. Chem. Phys., 2013 139 
     doi.org/10.1063/1.4819264
  5. Neese,F.
     Software update: the ORCA program system, version 4.0
     WIRES Comput. Molec. Sci., 2018 8(1)1-6
     doi.org/10.1002/wcms.1327
  6. Neese,F.; Wennmohs,F.; Becker,U.; Riplinger,C.
     The ORCA quantum chemistry program package
     J. Chem. Phys., 2020 152 Art. No. L224108
     doi.org/10.1063/5.0004608

List of optional additional citations

  1. Neese,F.
     Approximate second-order SCF convergence for spin unrestricted wavefunctions
     Chem. Phys. Lett., 2000 325(1-3)93-98
     doi.org/10.1016/s0009-2614(00)00662-x

Timings for individual modules:

Sum of individual times          ...      112.768 sec (=   1.879 min)
Startup calculation              ...       23.565 sec (=   0.393 min)  20.9 %
SCF iterations                   ...       53.844 sec (=   0.897 min)  47.7 %
Property calculations            ...       16.049 sec (=   0.267 min)  14.2 %
MP2 module                       ...       19.309 sec (=   0.322 min)  17.1 %
                             ****ORCA TERMINATED NORMALLY****
TOTAL RUN TIME: 0 days 0 hours 2 minutes 19 seconds 319 msec
