
                                 *****************
                                 * O   R   C   A *
                                 *****************

                                            #,                                       
                                            ###                                      
                                            ####                                     
                                            #####                                    
                                            ######                                   
                                           ########,                                 
                                     ,,################,,,,,                         
                               ,,#################################,,                 
                          ,,##########################################,,             
                       ,#########################################, ''#####,          
                    ,#############################################,,   '####,        
                  ,##################################################,,,,####,       
                ,###########''''           ''''###############################       
              ,#####''   ,,,,##########,,,,          '''####'''          '####       
            ,##' ,,,,###########################,,,                        '##       
           ' ,,###''''                  '''############,,,                           
         ,,##''                                '''############,,,,        ,,,,,,###''
      ,#''                                            '''#######################'''  
     '                                                          ''''####''''         
             ,#######,   #######,   ,#######,      ##                                
            ,#'     '#,  ##    ##  ,#'     '#,    #''#        ,####,   ,####,        
            ##       ##  ##   ,#'  ##            #'  '#       #'       #'  '#        
            ##       ##  #######   ##           ,######,      #####,   #    #        
            '#,     ,#'  ##    ##  '#,     ,#' ,#      #,     #,   #   #,  ,#        
             '#######'   ##     ##  '#######'  #'      '#     '####' # '####'        



                #########################################################
                #                        -***-                          #
                #          Department of theory and spectroscopy        #
                #                                                       #
                #                      Frank Neese                      #
                #                                                       #
                #     Directorship, Architecture, Infrastructure        #
                #                    SHARK, DRIVERS                     #
                #        Core code/Algorithms in most modules           #
                #                                                       #
                #        Max Planck Institute fuer Kohlenforschung      #
                #                Kaiser Wilhelm Platz 1                 #
                #                 D-45470 Muelheim/Ruhr                 #
                #                      Germany                          #
                #                                                       #
                #                  All rights reserved                  #
                #                        -***-                          #
                #########################################################


                         Program Version 6.0.1  -  RELEASE   -


 With contributions from (in alphabetic order):
[Max-Planck-Institut fuer Kohlenforschung]                               
  Daniel Aravena         : Magnetic Suceptibility                        
  Michael Atanasov       : Ab Initio Ligand Field Theory (pilot matlab implementation)
  Alexander A. Auer      : GIAO ZORA, VPT2 properties, NMR spectrum      
  Ute Becker             : All parallelization in ORCA, NUMFREQ, NUMCALC 
  Giovanni Bistoni       : ED, misc. LED, open-shell LED, HFLD           
  Martin Brehm           : Molecular dynamics                            
  Dmytro Bykov           : pre 5.0 version of the SCF Hessian            
  Marcos Casanova-Páez   : Triplet and SCS-CIS(D). UHF-(DLPNO)-IP/EA/STEOM-CCSD. UHF-CVS-IP/STEOM-CCSD   
  Vijay G. Chilkuri      : MRCI spin determinant printing, contributions to CSF-ICE 
  Pauline Colinet        : FMM embedding                                 
  Dipayan Datta          : RHF DLPNO-CCSD density                        
  Achintya Kumar Dutta   : EOM-CC, STEOM-CC                              
  Nicolas Foglia         : Exact transition moments, OPA infrastructure, MCD improvements    
  Dmitry Ganyushin       : Spin-Orbit,Spin-Spin,Magnetic field MRCI      
  Miquel Garcia-Rates    : C-PCM and meta-GGA Hessian, CCSD/C-PCM, Gaussian charge scheme 
  Tiago L. C. Gouveia    : GS-ROHF, GS-ROCIS                             
  Yang Guo               : DLPNO-NEVPT2, F12-NEVPT2, CIM, IAO-localization        
  Andreas Hansen         : Spin unrestricted coupled pair/coupled cluster methods 
  Ingolf Harden          : AUTO-CI MPn and infrastructure                
  Benjamin Helmich-Paris : MC-RPA, TRAH-(SCF,CASSCF), AVAS, COSX integrals, SCF dyn. polar. 
  Lee Huntington         : MR-EOM, pCC                                   
  Robert Izsak           : Overlap fitted RIJCOSX, COSX-SCS-MP3, EOM     
  Riya Kayal             : Wick's Theorem for AUTO-CI, AUTO-CI UHF-CCSDT 
  Emily Kempfer          : AUTO-CI, RHF CISDT and CCSDT                  
  Christian Kollmar      : KDIIS, OOCD, Brueckner-CCSD(T), CCSD density, CASPT2, CASPT2-K, improved NEVPT2 
  Axel Koslowski         : Symmetry handling                             
  Simone Kossmann        : meta-GGA functionals, TD-DFT gradient, OOMP2, (MP2 Hessian; deprecated post 5.0) 
  Lucas Lang             : DCDCAS                                        
  Marvin Lechner         : AUTO-CI (C++ implementation), FIC-MRCC        
  Spencer Leger          : CASSCF response                               
  Dagmar Lenk            : GEPOL surface, SMD, ORCA-2-JSON               
  Dimitrios Liakos       : Extrapolation schemes; Compound Job, initial MDCI parallelization 
  Dimitrios Manganas     : Further ROCIS development; embedding schemes. LFT, Crystal Embedding 
  Dimitrios Pantazis     : SARC Basis sets                               
  Anastasios Papadopoulos: AUTO-CI, single reference methods and gradients 
  Taras Petrenko         : pre 6.0 DFT Hessian and TD-DFT gradient, (ASA, deprecated), ECA, 1-Electron XAS/XES, NRVS 
  Peter Pinski           : DLPNO-MP2, DLPNO-MP2 Gradient                 
  Christoph Reimann      : Effective Core Potentials                     
  Marius Retegan         : Local ZFS, SOC                                
  Christoph Riplinger    : Optimizer, TS searches, QM/MM, DLPNO-CCSD(T), (RO)-DLPNO pert. Triples 
  Michael Roemelt        : Original ROCIS implementation                 
  Masaaki Saitow         : Open-shell DLPNO-CCSD energy and density      
  Barbara Sandhoefer     : DKH picture change effects                    
  Kantharuban Sivalingam : CASSCF convergence/infrastructure, NEVPT2 and variants, FIC-MRCI 
  Bernardo de Souza      : ESD, SOC TD-DFT                               
  Georgi L. Stoychev     : AutoAux, RI-MP2 NMR, DLPNO-MP2 response, X2C  
  Van Anh Tran           : RI-MP2 g-tensors                              
  Willem Van den Heuvel  : Paramagnetic NMR                              
  Zikuan Wang            : NOTCH, Electric field optimization            
  Frank Wennmohs         : Technical directorship and infrastructure     
  Hang Xu                : AUTO-CI-Response properties                   
                                                                         
[FACCTs GmbH]                                                            
  Markus Bursch, Miquel Garcia-Rates, Christoph Riplinger, Bernardo de Souza, Georgi L. Stoychev 
                                                                 
  APM, Basis sets (HGBS, AHGBS, def-TZVP (Ac-Lr), def2-XVPD (La-Lu)), CI-OPT, improved COSX, DLPNO-Multilevel,           
  DOCKER, DRACO, updates on ESD, GOAT, IRC, LR-CPCM, MBIS, meta-GGA TD-DFT gradient, ML-optimized integration grids, 
  MM, NACMEs, nearIR, NEB, NEB-TS, NL-DFT gradient (VV10), 2- and 3-layer-ONIOM, interface openCOSMO-RS, QMMM,   
  Crystal-QMMM, SF, symmetry and pop. for TD-DFT, r2SCAN hybrids, SOLVATOR                                   
                                                                         
[Other institutions]                                                     
  V. Asgeirsson          : NEB                                           
  Christoph Bannwarth    : sTDA-DFT, sTD-DFT, PBEh-3c, B97-3c, D3        
  Sebastian Ehlert       : rSCAN, r2SCAN, r2SCAN-3c, D4, dhf basis sets  
  Marvin Friede          : D4 for Fr, Ra, Ac-Lr                          
  Lars Goerigk           : TD-DFT with DH, B97 family of functionals     
  Stefan Grimme          : VdW corrections, initial TS optimization, DFT functionals, gCP, sTDA/sTD-DF 
  Waldemar Hujo          : DFT-NL                                        
  H. Jonsson             : NEB                                           
  Holger Kruse           : gCP                                           
  Marcel Mueller         : wB97X-3c, vDZP basis set                      
  Hagen Neugebauer       : wr2SCAN                                       
  Tobias Risthaus        : range-separated hybrid DFT                    
  Lukas Wittmann         : regularized MP2, r2SCAN double-hybrids, wr2SCAN        
                                                                         
We gratefully acknowledge several colleagues who have allowed us to      
interface, adapt or use parts of their codes:                            
  Ed Valeev, F. Pavosevic, A. Kumar             : LibInt (2-el integral package), F12 methods 
  Garnet Chan, S. Sharma, J. Yang, R. Olivares  : DMRG                   
  Ulf Ekstrom                                   : XCFun DFT Library      
  Mihaly Kallay                                 : mrcc  (arbitrary order and MRCC methods)
  Frank Weinhold                                : gennbo (NPA and NBO analysis)           
  Simon Mueller                                 : openCOSMO-RS                            
  Christopher J. Cramer and Donald G. Truhlar   : smd solvation model                     
  S Lehtola, MJT Oliveira, MAL Marques          : LibXC Library                           
  Liviu Ungur et al                             : ANISO software                          


 Your calculation uses the libint2 library for the computation of 2-el integrals
 For citations please refer to: http://libint.valeyev.net

 Your ORCA version has been built with support for libXC version: 6.2.2
 For citations please refer to: https://libxc.gitlab.io

 This ORCA versions uses:
   CBLAS   interface :  Fast vector & matrix operations
   LAPACKE interface :  Fast linear algebra routines
   SCALAPACK package :  Parallel linear algebra routines
   Shared memory     :  Shared parallel matrices
   BLAS/LAPACK       :  OpenBLAS 0.3.27  USE64BITINT DYNAMIC_ARCH NO_AFFINITY SapphireRapids SINGLE_THREADED
        Core in use  :  SapphireRapids
   Copyright (c) 2011-2014, The OpenBLAS Project




***************************************
The coordinates will be read from file: /scratch/kx58/rs2200/dhdft/inputs/compas3x-xyzs/hc_c24h14_0pent_10.xyz
***************************************


Your calculation utilizes the atom-pairwise dispersion correction
based on EEQ partial charges (D4)


================================================================================

----- Orbital basis set information -----
Your calculation utilizes the basis: def2-SVP
   F. Weigend and R. Ahlrichs, Phys. Chem. Chem. Phys. 7, 3297 (2005).

================================================================================
                                        WARNINGS
                       Please study these warnings very carefully!
================================================================================


WARNING: No MP2 level density has been requested!
         To calculate MP2 level properties use
         %mp2 Density relaxed end
         or
         %mp2 Density unrelaxed end
         Otherwise for double-hybrid DFT only the energy is correct!

================================================================================
                                       INPUT FILE
================================================================================
NAME = hc_c24h14_0pent_10_dz_nori.inp
|  1> ! RKS revDSD-PBEP86-D4/2021 defgrid3  NORI NOPOP NoFrozencore NoUseSym
|  2> 
|  3> %basis
|  4>   Basis "def2-SVP"
|  5>   
|  6>   
|  7> end
|  8> 
|  9> %method
| 10>   ScalHFX 0.69
| 11>   ScalDFX 0.31
| 12>   ScalDFC 0.4038
| 13>   ScalLDAC 0.4038
| 14> 
| 15>   D4S6 0.4612
| 16>   D4S8 0.0
| 17>   D4A1 0.44
| 18>   D4A2 3.60
| 19> end
| 20> 
| 21> %mp2
| 22>   PS 0.5979
| 23>   PT 0.0571
| 24> end
| 25> 
| 26> %pal
| 27>     nprocs 104
| 28> end
| 29> 
| 30> *XYZFILE 0 1 /scratch/kx58/rs2200/dhdft/inputs/compas3x-xyzs/hc_c24h14_0pent_10.xyz
| 31> 
| 32>                          ****END OF INPUT****
================================================================================

                       ****************************
                       * Single Point Calculation *
                       ****************************

---------------------------------
CARTESIAN COORDINATES (ANGSTROEM)
---------------------------------
  C      1.435633   -0.682856    0.010195
  C      0.038310   -0.875084   -0.003854
  C     -0.843644    0.235423   -0.001360
  C     -0.339969    1.552882    0.015196
  C      1.062153    1.713590    0.031347
  C      1.909699    0.646408    0.028964
  C      2.315488   -1.817233    0.004723
  C      1.755023   -3.121548   -0.013814
  C      0.356235   -3.280639   -0.025663
  C     -0.496746   -2.202543   -0.021289
  C     -1.917634   -2.382149   -0.034254
  C     -2.754531   -1.328376   -0.031872
  C     -2.257816    0.014897   -0.016288
  C     -3.114767    1.089849   -0.015803
  C     -2.643040    2.416244   -0.001370
  C     -1.245655    2.666757    0.014747
  C      3.717724   -1.707629    0.015903
  C      4.522311   -2.817620    0.008881
  C      3.964568   -4.100503   -0.009600
  C      2.605360   -4.246106   -0.020545
  C     -3.545849    3.499148   -0.003142
  C     -3.096224    4.790048    0.010307
  C     -1.720330    5.042763    0.026397
  C     -0.821349    4.007718    0.028611
  H      1.486978    2.704678    0.046031
  H      2.971270    0.835740    0.041857
  H     -0.050372   -4.282722   -0.039067
  H     -2.295836   -3.394650   -0.046290
  H     -3.826396   -1.467455   -0.041934
  H     -4.182919    0.920747   -0.027304
  H      4.183398   -0.734909    0.030016
  H      5.596619   -2.704171    0.017515
  H      4.610417   -4.966235   -0.015176
  H      2.157459   -5.229728   -0.034892
  H     -4.605374    3.285647   -0.015706
  H     -3.793232    5.615166    0.008530
  H     -1.366543    6.063452    0.037004
  H      0.231581    4.240999    0.041001

----------------------------
CARTESIAN COORDINATES (A.U.)
----------------------------
  NO LB      ZA    FRAG     MASS         X           Y           Z
   0 C     6.0000    0    12.011    2.712954   -1.290411    0.019266
   1 C     6.0000    0    12.011    0.072396   -1.653669   -0.007283
   2 C     6.0000    0    12.011   -1.594256    0.444885   -0.002570
   3 C     6.0000    0    12.011   -0.642448    2.934522    0.028716
   4 C     6.0000    0    12.011    2.007178    3.238216    0.059237
   5 C     6.0000    0    12.011    3.608808    1.221534    0.054734
   6 C     6.0000    0    12.011    4.375638   -3.434073    0.008925
   7 C     6.0000    0    12.011    3.316513   -5.898871   -0.026104
   8 C     6.0000    0    12.011    0.673187   -6.199510   -0.048496
   9 C     6.0000    0    12.011   -0.938713   -4.162203   -0.040231
  10 C     6.0000    0    12.011   -3.623803   -4.501609   -0.064731
  11 C     6.0000    0    12.011   -5.205309   -2.510267   -0.060230
  12 C     6.0000    0    12.011   -4.266654    0.028151   -0.030779
  13 C     6.0000    0    12.011   -5.886056    2.059516   -0.029864
  14 C     6.0000    0    12.011   -4.994621    4.566039   -0.002588
  15 C     6.0000    0    12.011   -2.353946    5.039441    0.027868
  16 C     6.0000    0    12.011    7.025480   -3.226951    0.030053
  17 C     6.0000    0    12.011    8.545929   -5.324530    0.016782
  18 C     6.0000    0    12.011    7.491948   -7.748827   -0.018142
  19 C     6.0000    0    12.011    4.923417   -8.023977   -0.038825
  20 C     6.0000    0    12.011   -6.700683    6.612431   -0.005937
  21 C     6.0000    0    12.011   -5.851015    9.051879    0.019477
  22 C     6.0000    0    12.011   -3.250953    9.529442    0.049883
  23 C     6.0000    0    12.011   -1.552126    7.573490    0.054068
  24 H     1.0000    0     1.008    2.809981    5.111100    0.086985
  25 H     1.0000    0     1.008    5.614887    1.579320    0.079099
  26 H     1.0000    0     1.008   -0.095189   -8.093171   -0.073826
  27 H     1.0000    0     1.008   -4.338502   -6.414959   -0.087476
  28 H     1.0000    0     1.008   -7.230841   -2.773089   -0.079244
  29 H     1.0000    0     1.008   -7.904572    1.739959   -0.051597
  30 H     1.0000    0     1.008    7.905476   -1.388776    0.056722
  31 H     1.0000    0     1.008   10.576077   -5.110144    0.033099
  32 H     1.0000    0     1.008    8.712425   -9.384823   -0.028678
  33 H     1.0000    0     1.008    4.077007   -9.882754   -0.065937
  34 H     1.0000    0     1.008   -8.702895    6.208973   -0.029679
  35 H     1.0000    0     1.008   -7.168170   10.611125    0.016119
  36 H     1.0000    0     1.008   -2.582392   11.458263    0.069927
  37 H     1.0000    0     1.008    0.437624    8.014327    0.077481

--------------------------------
INTERNAL COORDINATES (ANGSTROEM)
--------------------------------
 C      0   0   0     0.000000000000     0.00000000     0.00000000
 C      1   0   0     1.410553453237     0.00000000     0.00000000
 C      2   1   0     1.418123637391   120.62044533     0.00000000
 C      3   2   1     1.410553425520   120.62044115     0.00000000
 C      4   3   2     1.411393975964   117.46553067   359.89153477
 C      5   4   3     1.362797984776   121.91393697     0.10925989
 C      1   2   3     1.435613303902   119.96084306   180.12618509
 C      7   1   2     1.419753997888   118.94894645   359.94949193
 C      8   7   1     1.407856209170   119.74518967   359.96373011
 C      9   8   7     1.374731661989   121.85883577     0.07172561
 C     10   9   8     1.432253421636   121.14303453   179.96490418
 C     11  10   9     1.345674354941   121.24953095   180.09302977
 C      3   2   1     1.431341083805   119.58991243   179.97838389
 C     13   3   2     1.374731539641   119.69645339   180.09117416
 C     14  13   3     1.407856081311   121.85883452     0.00000000
 C     15  14  13     1.419753976072   119.74519093   359.92782395
 C      7   1   2     1.406557166126   123.32524009   179.90406853
 C     17   7   1     1.370944838326   121.46314428   180.06195739
 C     18  17   7     1.399002505130   120.56693008     0.00000000
 C     19  18  17     1.367028489724   119.61482811     0.00000000
 C     15  14  13     1.409874986602   120.60188404   179.91017076
 C     21  15  14     1.367028478727   120.97637341   180.02439676
 C     22  21  15     1.399002500226   119.61482886     0.00000000
 C     23  22  21     1.370944831316   120.56693115     0.00000000
 H      5   4   3     1.078399679444   119.74584970   180.10679085
 H      6   5   4     1.078399679762   118.34021640   179.99753525
 H      9   8   7     1.081516454866   118.57743015   180.04008567
 H     11  10   9     1.080897811636   117.68992471     0.07806612
 H     12  11  10     1.080897814472   121.06053858   179.98449131
 H     14  13   3     1.081516503154   119.56372492   179.98747536
 H     17   7   1     1.078534051950   120.05438463     0.04182924
 H     18  17   7     1.080315801903   119.90447281   179.98356080
 H     19  18  17     1.080112521915   119.78037600   179.98622521
 H     20  19  18     1.080894792347   120.59993985   179.99760708
 H     21  15  14     1.080894814349   118.42368538     0.00000000
 H     22  21  15     1.080112569555   120.60479760   179.97942195
 H     23  22  21     1.080315825228   119.52859352   179.99947341
 H     24  23  22     1.078534066106   118.48247107   179.98797529

---------------------------
INTERNAL COORDINATES (A.U.)
---------------------------
 C      0   0   0     0.000000000000     0.00000000     0.00000000
 C      1   0   0     2.665559723875     0.00000000     0.00000000
 C      2   1   0     2.679865298710   120.62044533     0.00000000
 C      3   2   1     2.665559671497   120.62044115     0.00000000
 C      4   3   2     2.667148081638   117.46553067   359.89153477
 C      5   4   3     2.575314967087   121.91393697     0.10925989
 C      1   2   3     2.712915978588   119.96084306   180.12618509
 C      7   1   2     2.682946233549   118.94894645   359.94949193
 C      8   7   1     2.660462671272   119.74518967   359.96373011
 C      9   8   7     2.597866348789   121.85883577     0.07172561
 C     10   9   8     2.706566721263   121.14303453   179.96490418
 C     11  10   9     2.542955996279   121.24953095   180.09302977
 C      3   2   1     2.704842652621   119.58991243   179.97838389
 C     13   3   2     2.597866117586   119.69645339   180.09117416
 C     14  13   3     2.660462429654   121.85883452     0.00000000
 C     15  14  13     2.682946192321   119.74519093   359.92782395
 C      7   1   2     2.658007835683   123.32524009   179.90406853
 C     17   7   1     2.590710289150   121.46314428   180.06195739
 C     18  17   7     2.643731595365   120.56693008     0.00000000
 C     19  18  17     2.583309462847   119.61482811     0.00000000
 C     15  14  13     2.664277607743   120.60188404   179.91017076
 C     21  15  14     2.583309442064   120.97637341   180.02439676
 C     22  21  15     2.643731586099   119.61482886     0.00000000
 C     23  22  21     2.590710275902   120.56693115     0.00000000
 H      5   4   3     2.037880057057   119.74584970   180.10679085
 H      6   5   4     2.037880057658   118.34021640   179.99753525
 H      9   8   7     2.043769909026   118.57743015   180.04008567
 H     11  10   9     2.042600842746   117.68992471     0.07806612
 H     12  11  10     2.042600848106   121.06053858   179.98449131
 H     14  13   3     2.043770000276   119.56372492   179.98747536
 H     17   7   1     2.038133984293   120.05438463     0.04182924
 H     18  17   7     2.041501003744   119.90447281   179.98356080
 H     19  18  17     2.041116860238   119.78037600   179.98622521
 H     20  19  18     2.042595137118   120.59993985   179.99760708
 H     21  15  14     2.042595178695   118.42368538     0.00000000
 H     22  21  15     2.041116950265   120.60479760   179.97942195
 H     23  22  21     2.041501047821   119.52859352   179.99947341
 H     24  23  22     2.038134011044   118.48247107   179.98797529

---------------------
BASIS SET INFORMATION
---------------------
There are 2 groups of distinct atoms

 Group   1 Type C   : 7s4p1d contracted to 3s2p1d pattern {511/31/1}
 Group   2 Type H   : 4s1p contracted to 2s1p pattern {31/1}

Atom   0C    basis set group =>   1
Atom   1C    basis set group =>   1
Atom   2C    basis set group =>   1
Atom   3C    basis set group =>   1
Atom   4C    basis set group =>   1
Atom   5C    basis set group =>   1
Atom   6C    basis set group =>   1
Atom   7C    basis set group =>   1
Atom   8C    basis set group =>   1
Atom   9C    basis set group =>   1
Atom  10C    basis set group =>   1
Atom  11C    basis set group =>   1
Atom  12C    basis set group =>   1
Atom  13C    basis set group =>   1
Atom  14C    basis set group =>   1
Atom  15C    basis set group =>   1
Atom  16C    basis set group =>   1
Atom  17C    basis set group =>   1
Atom  18C    basis set group =>   1
Atom  19C    basis set group =>   1
Atom  20C    basis set group =>   1
Atom  21C    basis set group =>   1
Atom  22C    basis set group =>   1
Atom  23C    basis set group =>   1
Atom  24H    basis set group =>   2
Atom  25H    basis set group =>   2
Atom  26H    basis set group =>   2
Atom  27H    basis set group =>   2
Atom  28H    basis set group =>   2
Atom  29H    basis set group =>   2
Atom  30H    basis set group =>   2
Atom  31H    basis set group =>   2
Atom  32H    basis set group =>   2
Atom  33H    basis set group =>   2
Atom  34H    basis set group =>   2
Atom  35H    basis set group =>   2
Atom  36H    basis set group =>   2
Atom  37H    basis set group =>   2


           ************************************************************
           *        Program running with 104 parallel MPI-processes   *
           *              working on a common directory               *
           ************************************************************
------------------------------------------------------------------------------
                             ORCA STARTUP CALCULATIONS
------------------------------------------------------------------------------
------------------------------------------------------------------------------
                   ___                                                        
                  /   \      - P O W E R E D   B Y -                         
                 /     \                                                     
                 |  |  |   _    _      __       _____    __    __             
                 |  |  |  | |  | |    /  \     |  _  \  |  |  /  |          
                  \  \/   | |  | |   /    \    | | | |  |  | /  /          
                 / \  \   | |__| |  /  /\  \   | |_| |  |  |/  /          
                |  |  |   |  __  | /  /__\  \  |    /   |      \           
                |  |  |   | |  | | |   __   |  |    \   |  |\   \          
                \     /   | |  | | |  |  |  |  | |\  \  |  | \   \       
                 \___/    |_|  |_| |__|  |__|  |_| \__\ |__|  \__/        
                                                                              
                      - O R C A' S   B I G   F R I E N D -                    
                                      &                                       
                       - I N T E G R A L  F E E D E R -                       
                                                                              
 v1 FN, 2020, v2 2021, v3 2022-2024                                           
------------------------------------------------------------------------------


----------------------
SHARK INTEGRAL PACKAGE
----------------------

Number of atoms                             ...     38
Number of basis functions                   ...    406
Number of shells                            ...    186
Maximum angular momentum                    ...      2
Integral batch strategy                     ... SHARK/LIBINT Hybrid
RI-J (if used) integral strategy            ... SPLIT-RIJ (Revised 2003 algorithm where possible)
Printlevel                                  ...      1
Contraction scheme used                     ... SEGMENTED contraction
Prescreening option                         ... SCHWARTZ
   Thresh                                   ... 1.000e-10
   Tcut                                     ... 1.000e-11
   Tpresel                                  ... 1.000e-11 
Coulomb Range Separation                    ... NOT USED
Exchange Range Separation                   ... NOT USED
Multipole approximations                    ... NOT USED
Finite Nucleus Model                        ... NOT USED
CABS basis                                  ... NOT available
Auxiliary Coulomb fitting basis             ... NOT available
Auxiliary J/K fitting basis                 ... NOT available
Auxiliary Correlation fitting basis         ... NOT available
Auxiliary 'external' fitting basis          ... NOT available

Checking pre-screening integrals            ... done (  0.0 sec) Dimension = 186
Check shell pair data                       ... done (  0.0 sec)
Shell pair information
Shell pair cut-off parameter TPreSel        ...   1.0e-11
Total number of shell pairs                 ...     17391
Shell pairs after pre-screening             ...     12376
Total number of primitive shell pairs       ...     64615
Primitive shell pairs kept                  ...     29476
          la=0 lb=0:   3595 shell pairs
          la=1 lb=0:   4519 shell pairs
          la=1 lb=1:   1482 shell pairs
          la=2 lb=0:   1574 shell pairs
          la=2 lb=1:   1033 shell pairs
          la=2 lb=2:    173 shell pairs

Calculating one electron integrals          ... done (  0.0 sec)
Calculating Nuclear repulsion               ... done (  0.0 sec) ENN=   1787.241953416160 Eh

Diagonalization of the overlap matrix:
Smallest eigenvalue                        ... 1.385e-04
Time for diagonalization                   ...    0.026 sec
Threshold for overlap eigenvalues          ... 1.000e-07
Number of eigenvalues below threshold      ... 0
Time for construction of square roots      ...    0.009 sec
Total time needed                          ...    0.054 sec

-------------------
DFT GRID GENERATION
-------------------

General Integration Accuracy     IntAcc      ... 4.959
Radial Grid Type                 RadialGrid  ... OptM3 with GC (2021)
Angular Grid (max. ang.)         AngularGrid ... 6 (Lebedev-590)
Angular grid pruning method      GridPruning ... 4 (adaptive)
Weight generation scheme         WeightScheme... mBecke (2022)
Basis function cutoff            BFCut       ... 1.0000e-10
Integration weight cutoff        WCut        ... 1.0000e-14
Partially contracted basis set               ... off
Rotationally invariant grid construction     ... off
Angular grids for H and He will be reduced by one unit

Total number of grid points                  ...   457650
Total number of batches                      ...     7170
Average number of points per batch           ...       63
Average number of grid points per atom       ...    12043
Initializing property integral containers    ... done (  0.0 sec)

SHARK setup successfully completed in   4.1 seconds

Maximum memory used throughout the entire STARTUP-calculation: 85.9 MB


           ************************************************************
           *        Program running with 104 parallel MPI-processes   *
           *              working on a common directory               *
           ************************************************************
-------------------------------------------------------------------------------
                                 ORCA GUESS
                   Start orbitals & Density for SCF / CASSCF
-------------------------------------------------------------------------------

------------
SCF SETTINGS
------------
Hamiltonian:
 Density Functional     Method          .... DFT(GTOs)
 Exchange Functional    Exchange        .... PBE
   PBE kappa parameter   XKappa         ....  0.804000
   PBE mue parameter    XMuePBE         ....  0.219520
 Correlation Functional Correlation     .... P86
 LDA part of GGA corr.  LDAOpt          .... VWN-5
 Gradients option       PostSCFGGA      .... off
 Hybrid DFT is turned on
   Fraction HF Exchange ScalHFX         ....  0.690000
   Scaling of DF-GGA-X  ScalDFX         ....  0.310000
   Scaling of DF-GGA-C  ScalDFC         ....  0.403800
   Scaling of DF-LDA-C  ScalLDAC        ....  0.403800
   Perturbative correction              ....  1.000000


General Settings:
 Integral files         IntName         .... hc_c24h14_0pent_10_dz_nori
 Hartree-Fock type      HFTyp           .... RHF
 Total Charge           Charge          ....    0
 Multiplicity           Mult            ....    1
 Number of Electrons    NEL             ....  158
 Basis Dimension        Dim             ....  406
 Nuclear Repulsion      ENuc            ....   1787.2419534162 Eh

Convergence Acceleration:
 AO-DIIS                CNVDIIS         .... on
   Start iteration      DIISMaxIt       ....    12
   Startup error        DIISStart       ....  0.200000
   # of expansion vecs  DIISMaxEq       ....     5
   Bias factor          DIISBfac        ....   1.050
   Max. coefficient     DIISMaxC        ....  10.000
 MO-DIIS                CNVKDIIS        .... off
 Trust-Rad. Augm. Hess. CNVTRAH         .... auto
   Auto Start mean grad. ratio tolernc. ....  1.125000
   Auto Start start iteration           ....    50
   Auto Start num. interpolation iter.  ....    10
   Max. Number of Micro iterations      ....    24
   Max. Number of Macro iterations      .... Maxiter - #DIIS iter
   Number of Davidson start vectors     ....     2
   Converg. threshold    (grad. norm)   ....   5.000e-05
   Grad. Scal. Fac. for Micro threshold ....   0.100
   Minimum threshold for Micro iter.    ....   1.000e-02
   NR start threshold (gradient norm)   ....   1.000e-04
   Initial trust radius                 ....   0.400
   Minimum AH scaling param. (alpha)    ....   1.000
   Maximum AH scaling param. (alpha)    .... 1000.000
   Quad. conv. algorithm                .... NR
   White noise on init. David. guess    .... on
   Maximum white noise                  ....   0.010
   Pseudo random numbers                .... off
   Inactive MOs                         .... canonical
   Orbital update algorithm             .... Taylor
   Preconditioner                       .... Diag
   Full preconditioner red. dimension   ....   250
 SOSCF                  CNVSOSCF        .... on
   Start iteration      SOSCFMaxIt      ....   150
   Startup grad/error   SOSCFStart      ....  0.003300
   Hessian update       SOSCFHessUp     .... L-BFGS
 Level Shifting         CNVShift        .... on
   Level shift para.    LevelShift      ....    0.2500
   Turn off err/grad.   ShiftErr        ....    0.0010
 Zerner damping         CNVZerner       .... off
 Static damping         CNVDamp         .... on
   Fraction old density DampFac         ....    0.7000
   Max. Damping (<1)    DampMax         ....    0.9800
   Min. Damping (>=0)   DampMin         ....    0.0000
   Turn off err/grad.   DampErr         ....    0.1000

SCF Procedure:
 Maximum # iterations   MaxIter         ....   125
 SCF integral mode      SCFMode         .... Direct
   Integral package                     .... SHARK and LIBINT hybrid scheme
 Reset frequency        DirectResetFreq ....    20
 Integral Threshold     Thresh          ....  1.000e-10 Eh
 Primitive CutOff       TCut            ....  1.000e-11 Eh

Convergence Tolerance:
 Convergence Check Mode ConvCheckMode   .... Total+1el-Energy
 Convergence forced     ConvForced      .... 0
 Energy Change          TolE            ....  1.000e-06 Eh
 1-El. energy change                    ....  1.000e-03 Eh
 Orbital Gradient       TolG            ....  5.000e-05
 Orbital Rotation angle TolX            ....  5.000e-05
 DIIS Error             TolErr          ....  1.000e-06

------------------------------
INITIAL GUESS: MODEL POTENTIAL
------------------------------
Loading Hartree-Fock densities                     ... done
Calculating cut-offs                               ... done
Initializing the effective Hamiltonian             ... done
Setting up the integral package (SHARK)            ... done
Starting the Coulomb interaction                   ... done (   0.1 sec)
Making the grid                                    ... done (   0.2 sec)
Mapping shells                                     ... done
Starting the XC term evaluation                    ... done (   0.1 sec)
  promolecular density results
     # of electrons  =    157.999983414
     EX              =   -127.048635790
     EC              =      0.201082056
     EX+EC           =   -126.847553735
Transforming the Hamiltonian                       ... done (   0.0 sec)
Diagonalizing the Hamiltonian                      ... done (   0.0 sec)
Back transforming the eigenvectors                 ... done (   0.0 sec)
Now organizing SCF variables                       ... done
                      ------------------
                      INITIAL GUESS DONE (   0.6 sec)
                      ------------------
             **** ENERGY FILE WAS UPDATED (hc_c24h14_0pent_10_dz_nori.en.tmp) ****
Finished Guess after  15.3 sec
Maximum memory used throughout the entire GUESS-calculation: 27.2 MB


           ************************************************************
           *        Program running with 104 parallel MPI-processes   *
           *              working on a common directory               *
           ************************************************************

-------------------------------------------------------------------------------------------
                                      ORCA LEAN-SCF
                              memory conserving SCF solver
-------------------------------------------------------------------------------------------

----------------------------------------D-I-I-S--------------------------------------------
Iteration    Energy (Eh)           Delta-E    RMSDP     MaxDP     DIISErr   Damp  Time(sec)
-------------------------------------------------------------------------------------------
               ***  Starting incremental Fock matrix formation  ***
    1    -918.1478478099452332     0.00e+00  3.97e-03  1.10e-01  1.19e-01  0.700   2.7
    2    -918.2940990591182526    -1.46e-01  3.01e-03  8.40e-02  7.45e-02  0.700   1.6
                               ***Turning on AO-DIIS***
    3    -918.3822961894707078    -8.82e-02  2.00e-03  5.74e-02  4.51e-02  0.700   1.4
    4    -918.4377602311228657    -5.55e-02  4.70e-03  1.37e-01  3.08e-02  0.000   1.3
                              *** Initializing SOSCF ***
---------------------------------------S-O-S-C-F--------------------------------------
Iteration    Energy (Eh)           Delta-E    RMSDP     MaxDP     MaxGrad    Time(sec)
--------------------------------------------------------------------------------------
    5    -918.5585299515091720    -1.21e-01  1.89e-04  4.83e-03  2.49e-03     1.6
               *** Restarting incremental Fock matrix formation ***
    6    -918.5588113463982154    -2.81e-04  9.78e-05  2.24e-03  1.71e-03     1.3
    7    -918.5589124027969774    -1.01e-04  7.84e-05  1.99e-03  7.91e-04     1.2
    8    -918.5589317087042218    -1.93e-05  2.67e-05  5.57e-04  4.50e-04     1.3
    9    -918.5589377683550083    -6.06e-06  9.06e-06  2.63e-04  7.48e-05     1.3
   10    -918.5589379644006840    -1.96e-07  3.29e-06  8.07e-05  3.56e-05     1.5
                 **** Energy Check signals convergence ****

               *****************************************************
               *                     SUCCESS                       *
               *           SCF CONVERGED AFTER  10 CYCLES          *
               *****************************************************

             **** ENERGY FILE WAS UPDATED (hc_c24h14_0pent_10_dz_nori.en.tmp) ****

----------------
TOTAL SCF ENERGY
----------------

Total Energy       :       -918.55893796440068 Eh          -24995.25944 eV

Components:
Nuclear Repulsion  :       1787.24195341615950 Eh           48633.32602 eV
Electronic Energy  :      -2705.80089138056019 Eh          -73628.58546 eV
One Electron Energy:      -4792.93917061163575 Eh         -130422.50538 eV
Two Electron Energy:       2087.13827923107556 Eh           56793.91992 eV

Virial components:
Potential Energy   :      -1831.00357871500933 Eh          -49824.14039 eV
Kinetic Energy     :        912.44464075060864 Eh           24828.88095 eV
Virial Ratio       :          2.00670100622079

DFT components:
N(Alpha)           :       78.999982316110 electrons
N(Beta)            :       78.999982316110 electrons
N(Total)           :      157.999964632220 electrons
E(X)               :      -39.973890355437 Eh       
E(C)               :       -2.357805863289 Eh       
E(XC)              :      -42.331696218726 Eh       

---------------
SCF CONVERGENCE
---------------

  Last Energy change         ...    1.9605e-07  Tolerance :   1.0000e-06
  Last MAX-Density change    ...    8.0695e-05  Tolerance :   1.0000e-05
  Last RMS-Density change    ...    3.2946e-06  Tolerance :   1.0000e-06
  Last DIIS Error            ...    2.4859e-03  Tolerance :   1.0000e-06
  Last Orbital Gradient      ...    3.5554e-05  Tolerance :   5.0000e-05
  Last Orbital Rotation      ...    9.2184e-05  Tolerance :   5.0000e-05


----------------
ORBITAL ENERGIES
----------------

  NO   OCC          E(Eh)            E(eV) 
   0   2.0000     -10.839361      -294.9540 
   1   2.0000     -10.839300      -294.9524 
   2   2.0000     -10.837741      -294.9099 
   3   2.0000     -10.837733      -294.9097 
   4   2.0000     -10.837523      -294.9040 
   5   2.0000     -10.836894      -294.8869 
   6   2.0000     -10.835793      -294.8569 
   7   2.0000     -10.835774      -294.8564 
   8   2.0000     -10.834553      -294.8232 
   9   2.0000     -10.834543      -294.8229 
  10   2.0000     -10.830855      -294.7225 
  11   2.0000     -10.830638      -294.7166 
  12   2.0000     -10.829667      -294.6902 
  13   2.0000     -10.829578      -294.6878 
  14   2.0000     -10.829210      -294.6778 
  15   2.0000     -10.829202      -294.6776 
  16   2.0000     -10.829068      -294.6739 
  17   2.0000     -10.829059      -294.6737 
  18   2.0000     -10.828574      -294.6605 
  19   2.0000     -10.828572      -294.6604 
  20   2.0000     -10.827694      -294.6365 
  21   2.0000     -10.827692      -294.6365 
  22   2.0000     -10.826971      -294.6168 
  23   2.0000     -10.826970      -294.6168 
  24   2.0000      -1.089460       -29.6457 
  25   2.0000      -1.062496       -28.9120 
  26   2.0000      -1.037125       -28.2216 
  27   2.0000      -1.013930       -27.5904 
  28   2.0000      -0.996567       -27.1180 
  29   2.0000      -0.953738       -25.9525 
  30   2.0000      -0.951922       -25.9031 
  31   2.0000      -0.919520       -25.0214 
  32   2.0000      -0.913726       -24.8637 
  33   2.0000      -0.907569       -24.6962 
  34   2.0000      -0.876687       -23.8559 
  35   2.0000      -0.859146       -23.3786 
  36   2.0000      -0.788576       -21.4582 
  37   2.0000      -0.785192       -21.3662 
  38   2.0000      -0.775183       -21.0938 
  39   2.0000      -0.758635       -20.6435 
  40   2.0000      -0.734453       -19.9855 
  41   2.0000      -0.731697       -19.9105 
  42   2.0000      -0.698182       -18.9985 
  43   2.0000      -0.666077       -18.1249 
  44   2.0000      -0.648468       -17.6457 
  45   2.0000      -0.647680       -17.6243 
  46   2.0000      -0.634056       -17.2536 
  47   2.0000      -0.621059       -16.8999 
  48   2.0000      -0.588266       -16.0075 
  49   2.0000      -0.582927       -15.8622 
  50   2.0000      -0.578745       -15.7484 
  51   2.0000      -0.578112       -15.7312 
  52   2.0000      -0.555896       -15.1267 
  53   2.0000      -0.547595       -14.9008 
  54   2.0000      -0.534987       -14.5577 
  55   2.0000      -0.532578       -14.4922 
  56   2.0000      -0.528637       -14.3849 
  57   2.0000      -0.521517       -14.1912 
  58   2.0000      -0.508223       -13.8295 
  59   2.0000      -0.502635       -13.6774 
  60   2.0000      -0.498253       -13.5582 
  61   2.0000      -0.497327       -13.5329 
  62   2.0000      -0.488714       -13.2986 
  63   2.0000      -0.480491       -13.0748 
  64   2.0000      -0.463837       -12.6217 
  65   2.0000      -0.455023       -12.3818 
  66   2.0000      -0.443465       -12.0673 
  67   2.0000      -0.437639       -11.9088 
  68   2.0000      -0.431947       -11.7539 
  69   2.0000      -0.424941       -11.5632 
  70   2.0000      -0.408027       -11.1030 
  71   2.0000      -0.404526       -11.0077 
  72   2.0000      -0.364150        -9.9090 
  73   2.0000      -0.349186        -9.5018 
  74   2.0000      -0.320289        -8.7155 
  75   2.0000      -0.316607        -8.6153 
  76   2.0000      -0.299211        -8.1420 
  77   2.0000      -0.262940        -7.1550 
  78   2.0000      -0.227234        -6.1834 
  79   0.0000      -0.007241        -0.1970 
  80   0.0000       0.019047         0.5183 
  81   0.0000       0.061992         1.6869 
  82   0.0000       0.064975         1.7681 
  83   0.0000       0.079510         2.1636 
  84   0.0000       0.122475         3.3327 
  85   0.0000       0.122622         3.3367 
  86   0.0000       0.138039         3.7562 
  87   0.0000       0.142234         3.8704 
  88   0.0000       0.143830         3.9138 
  89   0.0000       0.156562         4.2603 
*Only the first 10 virtual orbitals were printed.
-------
TIMINGS
-------

Total SCF time: 0 days 0 hours 0 min 30 sec 

Total time                  ....      30.461 sec
Sum of individual times     ....      30.340 sec  ( 99.6%)

SCF preparation             ....      15.071 sec  ( 49.5%)
Fock matrix formation       ....      11.122 sec  ( 36.5%)
  Startup                   ....       0.799 sec  (  7.2% of F)
  Coulomb+Exchange Fock     ....       3.235 sec  ( 29.1% of F)
  XC integration            ....       5.643 sec  ( 50.7% of F)
    XC Preparation          ....       0.000 sec  (  0.0% of XC)
    Basis function eval.    ....       0.256 sec  (  4.5% of XC)
    Density eval.           ....       0.133 sec  (  2.4% of XC)
    XC-Functional eval.     ....       0.041 sec  (  0.7% of XC)
    XC-Potential eval.      ....       0.134 sec  (  2.4% of XC)
Diagonalization             ....       0.000 sec  (  0.0%)
Density matrix formation    ....       1.063 sec  (  3.5%)
Total Energy calculation    ....       0.655 sec  (  2.2%)
Population analysis         ....       0.000 sec  (  0.0%)
Orbital Transformation      ....       0.284 sec  (  0.9%)
Orbital Orthonormalization  ....       0.000 sec  (  0.0%)
DIIS solution               ....       1.259 sec  (  4.1%)
SOSCF solution              ....       0.838 sec  (  2.8%)
Finished LeanSCF after  30.7 sec

Maximum memory used throughout the entire LEANSCF-calculation: 67.4 MB


           ************************************************************
           *        Program running with 104 parallel MPI-processes   *
           *              working on a common directory               *
           ************************************************************

------------------------------------------------------------------------------
                                ORCA  MP2 
------------------------------------------------------------------------------


----------
MP2 ENERGY (disk based algorithm)
----------

Dimension of the basis                      ...  406
Memory devoted to MP2                       ... 4096 MB   
Data format for buffers                     ... DOUBLE
Compression type for matrix containers      ... UNCOMPRESSED
Scaling for aa/bb pairs                     ...   5.710e-02
Scaling for ab pairs                        ...   5.979e-01
Overall scaling of the MP2 energy           ...   1.000e+00

-------------------------
SHARK HALF TRANSFORMATION (Exchange order)
-------------------------

Number of basis functions                   ...    406
Number of operators                         ...      1
   Operator  0:    0-  78 (p-index in (p*|q*))
   Operator  0:    0-  78 (q-index in (p*|q*)
Integral generator used                     ... SHARK
Contraction scheme used                     ... SEGMENTED CONTRACTION
MaxCore in resort                           ...   4096 MB

Half transformed integrals for op=   0      ... hc_c24h14_0pent_10_dz_nori.SHARK_MNPQ0.tmp
Resorted half transformed integrals         ... hc_c24h14_0pent_10_dz_nori.KAO_aa.tmp

Half trafo (segmented) done. Total time =  4.9 sec. integrals=  0.8 sec trafo=  0.3 sec

----------------------
SHARK INTEGRAL SORTING (Exchange)
----------------------

Input container                             ... hc_c24h14_0pent_10_dz_nori.SHARK_MNPQ0.tmp
Output container                            ... hc_c24h14_0pent_10_dz_nori.KAO_aa.tmp
Range of AO-indices                         ...    0 -  405
Range of bra indices i                      ...    0 -   78
Range of ket indices j                      ...    0 -   78
Symmetric i,j range                         ... YES
Number of (i,j) pairs generated             ... 3160
Max Core memory in MB                       ...   1024

Available core memory in MB                 ...   1003.24
MB needed for one item                      ...      1.26
Number of items                             ...        31
Number of batches                           ...         1
Items treated per batch                     ...        31
Batch   0                                   ...      0-    30 (    31)
   => Closing output file and leaving
done (  5.0 sec)

SHARK half integral transformation done. Total time = 10.1 sec.


Finished integral transformation - now doing MP2 part

OPERATOR COMBINATION   0   0: ij=(  0.. 78,  0.. 78)
Process 11:   Internal MO  11
Process 35:   Internal MO  35
Process  2:   Internal MO   2
Process 17:   Internal MO  17
Process 38:   Internal MO  38
Process 14:   Internal MO  14
Process 26:   Internal MO  26
Process 20:   Internal MO  20
Process 32:   Internal MO  32
Process 44:   Internal MO  44
Process 56:   Internal MO  56
Process 59:   Internal MO  59
Process 53:   Internal MO  53
Process 62:   Internal MO  62
Process 41:   Internal MO  41
Process 47:   Internal MO  47
Process 50:   Internal MO  50
Process 71:   Internal MO  71
Process 65:   Internal MO  65
Process 68:   Internal MO  68
Process 74:   Internal MO  74
Process 77:   Internal MO  77
Process 29:   Internal MO  29
Process  8:   Internal MO   8
Process 23:   Internal MO  23
Process  5:   Internal MO   5
-----------------------------------------------
 MP2 CORRELATION ENERGY   :     -1.607206735 Eh
-----------------------------------------------


-------
TIMINGS
-------
Total time                :   11.231 sec
Integral trafo            :   10.148 sec ( 90.3%)
K(i,j)                    :    0.005 sec (  0.0%)
T(i,j)                    :    0.000 sec (  0.0%)

---------------------------------------
MP2 TOTAL ENERGY:     -920.166144700 Eh
---------------------------------------

Maximum memory used throughout the entire MP2-calculation: 311.4 MB


-------------------------------------------------------------------------------
                          DFT DISPERSION CORRECTION                            
                                                                               
                                DFTD4 V3.4.0                                   
-------------------------------------------------------------------------------
The REV-DSD-PBEP86-2021 functional is recognized
A user input s6-coefficient scaling factor has been recognized
A user input a1-coefficient scaling factor has been recognized
A user input s8-coefficient scaling factor has been recognized
A user input a2-coefficient scaling factor has been recognized
A user input s9-coefficient scaling factor has been recognized
Active option DFTDOPT                   ...         5   

-------------------------   ----------------
Dispersion correction           -0.038150012
-------------------------   ----------------


-------------------------   --------------------
FINAL SINGLE POINT ENERGY      -920.204294711686
-------------------------   --------------------



           ************************************************************
           *        Program running with 104 parallel MPI-processes   *
           *              working on a common directory               *
           ************************************************************

------------------------------------------------------------------------------
                              ORCA PROPERTY CALCULATIONS
------------------------------------------------------------------------------

GBWName                                 ... hc_c24h14_0pent_10_dz_nori.gbw
Number of atoms                         ...     38
Number of basis functions               ...    406
Max core memory                         ...   1024 MB

Electric properties:
Dipole moment                           ... YES
Quadrupole moment                       ...  NO
Static polarizability (Dipole/Dipole)   ...  NO
Static polarizability (Dipole/Quad.)    ...  NO
Static polarizability (Quad./Quad.)     ...  NO
Static polarizability (Velocity)        ...  NO

Atomic electric properties:
Dipole moment                           ...  NO
Quadrupole moment                       ...  NO
Static polarizability                   ...  NO

Choice of electric origin               ... Center of mass
Position of electric origin             ...    -0.076663    -0.060964    -0.000259

General magnetic properties:
Magnetizability                         ...  NO

EPR properties:
g-Tensor (aka g-matrix)                 ...  NO
Zero-Field splitting spin-orbit         ...  NO
Zero-field splitting spin-spin          ...  NO
Hyperfine couplings                     ...  NO (   0 nuclei)
Quadrupole couplings                    ...  NO (   0 nuclei)
Contact density                         ...  NO (   0 nuclei)

NMR properties:
Chemical shifts                         ...  NO (   0 nuclei)
Spin-rotation constants                 ...  NO (   0 nuclei)
Spin-spin couplings                     ...  NO (   0 nuclei,    0 pairs)

Choice of magnetic origin               ... GIAO
Position of magnetic origin             ...     0.000000     0.000000     0.000000

Properties with geometric perturbations:
SCF Hessian                             ...  NO
IR spectrum                             ...  NO
VCD spectrum                            ...  NO
X-ray spectroscopy properties:
SCF XES/XAS/RIXS spectra                ...  NO


-------------
DIPOLE MOMENT
-------------

Method             : SCF
Type of density    : Electron Density
Multiplicity       :   1
Irrep              :   0
Energy             :  -918.5589379644006840 Eh
Relativity type    : 
Basis              : AO
                                X                 Y                 Z
Electronic contribution:     -1.550587025      -1.231445577      -0.004687376
Nuclear contribution   :      1.580829915       1.255472719       0.003287472
                        -----------------------------------------
Total Dipole Moment    :      0.030242889       0.024027142      -0.001399905
                        -----------------------------------------
Magnitude (a.u.)       :      0.038650946
Magnitude (Debye)      :      0.098242898



--------------------
Rotational spectrum 
--------------------
 
Rotational constants in cm-1:             0.022222             0.005009             0.004088 
Rotational constants in MHz :           666.211312           150.167261           122.545300 

Dipole components along the rotational axes: 
x,y,z [a.u.] :    -0.000004     0.038606    -0.001861 
x,y,z [Debye]:    -0.000011     0.098129    -0.004730 

 

Dipole moment calculation done in   0.1 sec 

Maximum memory used throughout the entire PROP-calculation: 21.5 MB

--------------------------------
SUGGESTED CITATIONS FOR THIS RUN
--------------------------------

Below you find a list of papers that are relevant to this ORCA run
We neither can nor want to force you to cite these papers, but we appreciate if you do
You receive ORCA, which is the product of decades of hard work by many enthusiastic individuals, for free
The only thing we kindly ask in return is that you cite our papers,
We deeply appreciate it, if you show your appreciation for ORCA by not just citing the generic ORCA reference.

Please note that relegating all ORCA citations to the supporting information does *not* help us.
SI sections are not indexed - citations you put there will not count into any citation statistics
But we need these citations in order to attract the funding resources that allow us to do what we are doing

Therefore, if you are a happy ORCA user, please consider citing a few of the papers listed below in the main body of your paper

In addition to the list printed below, the program has created the file hc_c24h14_0pent_10_dz_nori.bibtex that contains the list in bibtex format
You can import this file easily into all common literature databanks and citation aid programs


List of essential papers. We consider these as the minimum necessary citations

  1. Neese,F.
     Software update: the ORCA program system, version 5.0
     WIRES Comput. Molec. Sci., 2022 12(1)e1606
     doi.org/10.1002/wcms.1606

List of papers to cite with high priority. The work reported in these papers was absolutely
necessary for this run to complete.
Our perspective: the developers of density functionals and basis sets usually get cited in chemistry papers
Good! But without the algorithms to do something with them, the functionals or basis sets would not do anything.
Hence, in our opinion, the algorithm design and method developments papers are equally worthy of getting cited

  1. Neese,F.
     The SHARK Integral Generation and Digestion System
     J. Comp. Chem., 2022  1-16
     doi.org/10.1002/jcc.26942
  2. Caldeweyher,E.; Bannwarth,C.; Grimme,S.
     Extension of the D3 dispersion coefficient model
     J. Chem. Phys., 2017 147 034112
     doi.org/10.1063/1.4993215
  3. Caldeweyher,E.; Ehlert,S.; Hansen,A.; Neugebauer,H.; Spicher,S.; Bannwarth,C.; Grimme,S.
     A generally applicable atomic-charge dependent London dispersion correction
     J. Chem. Phys., 2019 150 154122
     doi.org/10.1063/1.5090222
  4. Caldeweyher,E.; Mewes,J.; Ehlert,S.; Grimme,S.
     Extension and evaluation of the D4 London-dispersion model for periodic systems
     Phys. Chem. Chem. Phys., 2020 22(16)8499-8512
     doi.org/10.1039/D0CP00502A
  5. Wittmann,L.; Gordiy,I.; Friede,M.; Helmich-Paris,B.; Grimme,S.; Hansen,A.; Bursch,M.
     Extension of the D3 and D4 London Dispersion Corrections to the full Actinides Series
     Phys. Chem. Chem. Phys., 2024 26(32)21379-21394
     doi.org/https://doi.org/10.1039/D4CP01514B 

List of suggested additional citations. These are papers that are important in the 'surrounding' of 
of this run, or papers that preceded the highly important papers. If you like your results we are grateful for a citation.

  1. Neese,F.
     The ORCA program system
     WIRES Comput. Molec. Sci., 2012 2(1)73-78
     doi.org/10.1002/wcms.81
  2. Neese,F.
     Software update: the ORCA program system, version 4.0
     WIRES Comput. Molec. Sci., 2018 8(1)1-6
     doi.org/10.1002/wcms.1327
  3. Neese,F.; Wennmohs,F.; Becker,U.; Riplinger,C.
     The ORCA quantum chemistry program package
     J. Chem. Phys., 2020 152 Art. No. L224108
     doi.org/10.1063/5.0004608

List of optional additional citations

  1. Neese,F.
     Approximate second-order SCF convergence for spin unrestricted wavefunctions
     Chem. Phys. Lett., 2000 325(1-3)93-98
     doi.org/10.1016/s0009-2614(00)00662-x

Timings for individual modules:

Sum of individual times          ...      111.379 sec (=   1.856 min)
Startup calculation              ...       19.503 sec (=   0.325 min)  17.5 %
SCF iterations                   ...       48.812 sec (=   0.814 min)  43.8 %
Property calculations            ...       15.815 sec (=   0.264 min)  14.2 %
MP2 module                       ...       27.249 sec (=   0.454 min)  24.5 %
                             ****ORCA TERMINATED NORMALLY****
TOTAL RUN TIME: 0 days 0 hours 2 minutes 25 seconds 271 msec
