
                                 *****************
                                 * O   R   C   A *
                                 *****************

                                            #,                                       
                                            ###                                      
                                            ####                                     
                                            #####                                    
                                            ######                                   
                                           ########,                                 
                                     ,,################,,,,,                         
                               ,,#################################,,                 
                          ,,##########################################,,             
                       ,#########################################, ''#####,          
                    ,#############################################,,   '####,        
                  ,##################################################,,,,####,       
                ,###########''''           ''''###############################       
              ,#####''   ,,,,##########,,,,          '''####'''          '####       
            ,##' ,,,,###########################,,,                        '##       
           ' ,,###''''                  '''############,,,                           
         ,,##''                                '''############,,,,        ,,,,,,###''
      ,#''                                            '''#######################'''  
     '                                                          ''''####''''         
             ,#######,   #######,   ,#######,      ##                                
            ,#'     '#,  ##    ##  ,#'     '#,    #''#        ,####,   ,####,        
            ##       ##  ##   ,#'  ##            #'  '#       #'       #'  '#        
            ##       ##  #######   ##           ,######,      #####,   #    #        
            '#,     ,#'  ##    ##  '#,     ,#' ,#      #,     #,   #   #,  ,#        
             '#######'   ##     ##  '#######'  #'      '#     '####' # '####'        



                #########################################################
                #                        -***-                          #
                #          Department of theory and spectroscopy        #
                #                                                       #
                #                      Frank Neese                      #
                #                                                       #
                #     Directorship, Architecture, Infrastructure        #
                #                    SHARK, DRIVERS                     #
                #        Core code/Algorithms in most modules           #
                #                                                       #
                #        Max Planck Institute fuer Kohlenforschung      #
                #                Kaiser Wilhelm Platz 1                 #
                #                 D-45470 Muelheim/Ruhr                 #
                #                      Germany                          #
                #                                                       #
                #                  All rights reserved                  #
                #                        -***-                          #
                #########################################################


                         Program Version 6.0.1  -  RELEASE   -


 With contributions from (in alphabetic order):
[Max-Planck-Institut fuer Kohlenforschung]                               
  Daniel Aravena         : Magnetic Suceptibility                        
  Michael Atanasov       : Ab Initio Ligand Field Theory (pilot matlab implementation)
  Alexander A. Auer      : GIAO ZORA, VPT2 properties, NMR spectrum      
  Ute Becker             : All parallelization in ORCA, NUMFREQ, NUMCALC 
  Giovanni Bistoni       : ED, misc. LED, open-shell LED, HFLD           
  Martin Brehm           : Molecular dynamics                            
  Dmytro Bykov           : pre 5.0 version of the SCF Hessian            
  Marcos Casanova-Páez   : Triplet and SCS-CIS(D). UHF-(DLPNO)-IP/EA/STEOM-CCSD. UHF-CVS-IP/STEOM-CCSD   
  Vijay G. Chilkuri      : MRCI spin determinant printing, contributions to CSF-ICE 
  Pauline Colinet        : FMM embedding                                 
  Dipayan Datta          : RHF DLPNO-CCSD density                        
  Achintya Kumar Dutta   : EOM-CC, STEOM-CC                              
  Nicolas Foglia         : Exact transition moments, OPA infrastructure, MCD improvements    
  Dmitry Ganyushin       : Spin-Orbit,Spin-Spin,Magnetic field MRCI      
  Miquel Garcia-Rates    : C-PCM and meta-GGA Hessian, CCSD/C-PCM, Gaussian charge scheme 
  Tiago L. C. Gouveia    : GS-ROHF, GS-ROCIS                             
  Yang Guo               : DLPNO-NEVPT2, F12-NEVPT2, CIM, IAO-localization        
  Andreas Hansen         : Spin unrestricted coupled pair/coupled cluster methods 
  Ingolf Harden          : AUTO-CI MPn and infrastructure                
  Benjamin Helmich-Paris : MC-RPA, TRAH-(SCF,CASSCF), AVAS, COSX integrals, SCF dyn. polar. 
  Lee Huntington         : MR-EOM, pCC                                   
  Robert Izsak           : Overlap fitted RIJCOSX, COSX-SCS-MP3, EOM     
  Riya Kayal             : Wick's Theorem for AUTO-CI, AUTO-CI UHF-CCSDT 
  Emily Kempfer          : AUTO-CI, RHF CISDT and CCSDT                  
  Christian Kollmar      : KDIIS, OOCD, Brueckner-CCSD(T), CCSD density, CASPT2, CASPT2-K, improved NEVPT2 
  Axel Koslowski         : Symmetry handling                             
  Simone Kossmann        : meta-GGA functionals, TD-DFT gradient, OOMP2, (MP2 Hessian; deprecated post 5.0) 
  Lucas Lang             : DCDCAS                                        
  Marvin Lechner         : AUTO-CI (C++ implementation), FIC-MRCC        
  Spencer Leger          : CASSCF response                               
  Dagmar Lenk            : GEPOL surface, SMD, ORCA-2-JSON               
  Dimitrios Liakos       : Extrapolation schemes; Compound Job, initial MDCI parallelization 
  Dimitrios Manganas     : Further ROCIS development; embedding schemes. LFT, Crystal Embedding 
  Dimitrios Pantazis     : SARC Basis sets                               
  Anastasios Papadopoulos: AUTO-CI, single reference methods and gradients 
  Taras Petrenko         : pre 6.0 DFT Hessian and TD-DFT gradient, (ASA, deprecated), ECA, 1-Electron XAS/XES, NRVS 
  Peter Pinski           : DLPNO-MP2, DLPNO-MP2 Gradient                 
  Christoph Reimann      : Effective Core Potentials                     
  Marius Retegan         : Local ZFS, SOC                                
  Christoph Riplinger    : Optimizer, TS searches, QM/MM, DLPNO-CCSD(T), (RO)-DLPNO pert. Triples 
  Michael Roemelt        : Original ROCIS implementation                 
  Masaaki Saitow         : Open-shell DLPNO-CCSD energy and density      
  Barbara Sandhoefer     : DKH picture change effects                    
  Kantharuban Sivalingam : CASSCF convergence/infrastructure, NEVPT2 and variants, FIC-MRCI 
  Bernardo de Souza      : ESD, SOC TD-DFT                               
  Georgi L. Stoychev     : AutoAux, RI-MP2 NMR, DLPNO-MP2 response, X2C  
  Van Anh Tran           : RI-MP2 g-tensors                              
  Willem Van den Heuvel  : Paramagnetic NMR                              
  Zikuan Wang            : NOTCH, Electric field optimization            
  Frank Wennmohs         : Technical directorship and infrastructure     
  Hang Xu                : AUTO-CI-Response properties                   
                                                                         
[FACCTs GmbH]                                                            
  Markus Bursch, Miquel Garcia-Rates, Christoph Riplinger, Bernardo de Souza, Georgi L. Stoychev 
                                                                 
  APM, Basis sets (HGBS, AHGBS, def-TZVP (Ac-Lr), def2-XVPD (La-Lu)), CI-OPT, improved COSX, DLPNO-Multilevel,           
  DOCKER, DRACO, updates on ESD, GOAT, IRC, LR-CPCM, MBIS, meta-GGA TD-DFT gradient, ML-optimized integration grids, 
  MM, NACMEs, nearIR, NEB, NEB-TS, NL-DFT gradient (VV10), 2- and 3-layer-ONIOM, interface openCOSMO-RS, QMMM,   
  Crystal-QMMM, SF, symmetry and pop. for TD-DFT, r2SCAN hybrids, SOLVATOR                                   
                                                                         
[Other institutions]                                                     
  V. Asgeirsson          : NEB                                           
  Christoph Bannwarth    : sTDA-DFT, sTD-DFT, PBEh-3c, B97-3c, D3        
  Sebastian Ehlert       : rSCAN, r2SCAN, r2SCAN-3c, D4, dhf basis sets  
  Marvin Friede          : D4 for Fr, Ra, Ac-Lr                          
  Lars Goerigk           : TD-DFT with DH, B97 family of functionals     
  Stefan Grimme          : VdW corrections, initial TS optimization, DFT functionals, gCP, sTDA/sTD-DF 
  Waldemar Hujo          : DFT-NL                                        
  H. Jonsson             : NEB                                           
  Holger Kruse           : gCP                                           
  Marcel Mueller         : wB97X-3c, vDZP basis set                      
  Hagen Neugebauer       : wr2SCAN                                       
  Tobias Risthaus        : range-separated hybrid DFT                    
  Lukas Wittmann         : regularized MP2, r2SCAN double-hybrids, wr2SCAN        
                                                                         
We gratefully acknowledge several colleagues who have allowed us to      
interface, adapt or use parts of their codes:                            
  Ed Valeev, F. Pavosevic, A. Kumar             : LibInt (2-el integral package), F12 methods 
  Garnet Chan, S. Sharma, J. Yang, R. Olivares  : DMRG                   
  Ulf Ekstrom                                   : XCFun DFT Library      
  Mihaly Kallay                                 : mrcc  (arbitrary order and MRCC methods)
  Frank Weinhold                                : gennbo (NPA and NBO analysis)           
  Simon Mueller                                 : openCOSMO-RS                            
  Christopher J. Cramer and Donald G. Truhlar   : smd solvation model                     
  S Lehtola, MJT Oliveira, MAL Marques          : LibXC Library                           
  Liviu Ungur et al                             : ANISO software                          


 Your calculation uses the libint2 library for the computation of 2-el integrals
 For citations please refer to: http://libint.valeyev.net

 Your ORCA version has been built with support for libXC version: 6.2.2
 For citations please refer to: https://libxc.gitlab.io

 This ORCA versions uses:
   CBLAS   interface :  Fast vector & matrix operations
   LAPACKE interface :  Fast linear algebra routines
   SCALAPACK package :  Parallel linear algebra routines
   Shared memory     :  Shared parallel matrices
   BLAS/LAPACK       :  OpenBLAS 0.3.27  USE64BITINT DYNAMIC_ARCH NO_AFFINITY SapphireRapids SINGLE_THREADED
        Core in use  :  SapphireRapids
   Copyright (c) 2011-2014, The OpenBLAS Project




***************************************
The coordinates will be read from file: /scratch/kx58/rs2200/dhdft/inputs/compas3x-xyzs/hc_c24h14_0pent_2.xyz
***************************************


Your calculation utilizes the atom-pairwise dispersion correction
based on EEQ partial charges (D4)


Warning: RI is on but no J-basis has been assigned. Assigning Def2/J (nothing to worry about!)
================================================================================

----- Orbital basis set information -----
Your calculation utilizes the basis: def2-SVP
   F. Weigend and R. Ahlrichs, Phys. Chem. Chem. Phys. 7, 3297 (2005).

----- AuxJ basis set information -----
Your calculation utilizes the auxiliary basis: def2/J
   F. Weigend, Phys. Chem. Chem. Phys. 8, 1057 (2006).

----- AuxC basis set information -----
Your calculation utilizes the auxiliary basis: def2-SVP/C
  H-La, Hf-Rn : A. Hellweg, C. Hattig, S. Hofener and W. Klopper, Theor. Chem. Acc. 117, 587 (2007).
        Ce-Lu : J. Chmela and M. E. Harding, Mol. Phys. (2018).

================================================================================
                                        WARNINGS
                       Please study these warnings very carefully!
================================================================================


WARNING: No MP2 level density has been requested!
         To calculate MP2 level properties use
         %mp2 Density relaxed end
         or
         %mp2 Density unrelaxed end
         Otherwise for double-hybrid DFT only the energy is correct!

================================================================================
                                       INPUT FILE
================================================================================
NAME = hc_c24h14_0pent_2_dz_ri.inp
|  1> ! RKS revDSD-PBEP86-D4/2021 defgrid3  NOPOP NoFrozencore NoUseSym
|  2> 
|  3> %basis
|  4>   Basis "def2-SVP"
|  5>   
|  6>   AuxC "def2-SVP/C"
|  7> end
|  8> 
|  9> %method
| 10>   ScalHFX 0.69
| 11>   ScalDFX 0.31
| 12>   ScalDFC 0.4038
| 13>   ScalLDAC 0.4038
| 14> 
| 15>   D4S6 0.4612
| 16>   D4S8 0.0
| 17>   D4A1 0.44
| 18>   D4A2 3.60
| 19> end
| 20> 
| 21> %mp2
| 22>   PS 0.5979
| 23>   PT 0.0571
| 24> end
| 25> 
| 26> %pal
| 27>     nprocs 104
| 28> end
| 29> 
| 30> *XYZFILE 0 1 /scratch/kx58/rs2200/dhdft/inputs/compas3x-xyzs/hc_c24h14_0pent_2.xyz
| 31> 
| 32>                          ****END OF INPUT****
================================================================================

                       ****************************
                       * Single Point Calculation *
                       ****************************

---------------------------------
CARTESIAN COORDINATES (ANGSTROEM)
---------------------------------
  C      2.253740   -0.108310   -0.213590
  C      1.343849   -1.175081   -0.401665
  C     -0.058486   -0.963802   -0.257558
  C     -0.553573    0.303623    0.082639
  C      0.329413    1.438105   -0.066354
  C      1.727139    1.239028   -0.139567
  C      3.618704   -0.395028   -0.191316
  C      4.086866   -1.677566   -0.413738
  C      3.206816   -2.708482   -0.672838
  C      1.831669   -2.478674   -0.660528
  C      0.902656   -3.541274   -0.886404
  C     -0.426667   -3.340518   -0.782343
  C     -0.954121   -2.063661   -0.417427
  C     -2.306610   -1.871702   -0.216711
  C     -2.794287   -0.669744    0.313364
  C     -1.899157    0.415352    0.538136
  C     -0.172664    2.734240   -0.258781
  C      0.665247    3.817281   -0.377622
  C      2.042714    3.634056   -0.325157
  C      2.558281    2.362362   -0.239575
  C     -4.152742   -0.533928    0.678799
  C     -4.598678    0.583738    1.321981
  C     -3.688967    1.593775    1.669985
  C     -2.377659    1.510752    1.289835
  H      4.335923    0.386564    0.003083
  H      5.150230   -1.867905   -0.394328
  H      3.574380   -3.705818   -0.867320
  H      1.300138   -4.515990   -1.131847
  H     -1.126428   -4.148618   -0.942061
  H     -2.997409   -2.681417   -0.406498
  H     -1.236392    2.876563   -0.369590
  H      0.255128    4.805183   -0.527480
  H      2.705830    4.483375   -0.399765
  H      3.628365    2.236190   -0.283425
  H     -4.825276   -1.352338    0.464193
  H     -5.636915    0.679109    1.604182
  H     -4.028996    2.435417    2.255673
  H     -1.682061    2.267145    1.619618

----------------------------
CARTESIAN COORDINATES (A.U.)
----------------------------
  NO LB      ZA    FRAG     MASS         X           Y           Z
   0 C     6.0000    0    12.011    4.258951   -0.204676   -0.403627
   1 C     6.0000    0    12.011    2.539507   -2.220581   -0.759036
   2 C     6.0000    0    12.011   -0.110522   -1.821323   -0.486715
   3 C     6.0000    0    12.011   -1.046101    0.573763    0.156164
   4 C     6.0000    0    12.011    0.622500    2.717625   -0.125391
   5 C     6.0000    0    12.011    3.263820    2.341423   -0.263744
   6 C     6.0000    0    12.011    6.838360   -0.746495   -0.361535
   7 C     6.0000    0    12.011    7.723057   -3.170141   -0.781851
   8 C     6.0000    0    12.011    6.060004   -5.118289   -1.271480
   9 C     6.0000    0    12.011    3.461353   -4.684016   -1.248217
  10 C     6.0000    0    12.011    1.705772   -6.692038   -1.675061
  11 C     6.0000    0    12.011   -0.806284   -6.312663   -1.478415
  12 C     6.0000    0    12.011   -1.803027   -3.899755   -0.788822
  13 C     6.0000    0    12.011   -4.358862   -3.537005   -0.409525
  14 C     6.0000    0    12.011   -5.280438   -1.265633    0.592173
  15 C     6.0000    0    12.011   -3.588887    0.784902    1.016930
  16 C     6.0000    0    12.011   -0.326287    5.166964   -0.489025
  17 C     6.0000    0    12.011    1.257135    7.213616   -0.713603
  18 C     6.0000    0    12.011    3.860170    6.867371   -0.614457
  19 C     6.0000    0    12.011    4.834450    4.464216   -0.452732
  20 C     6.0000    0    12.011   -7.847544   -1.008978    1.282744
  21 C     6.0000    0    12.011   -8.690242    1.103104    2.498181
  22 C     6.0000    0    12.011   -6.971138    3.011799    3.155815
  23 C     6.0000    0    12.011   -4.493125    2.854908    2.437435
  24 H     1.0000    0     1.008    8.193707    0.730500    0.005827
  25 H     1.0000    0     1.008    9.732525   -3.529829   -0.745172
  26 H     1.0000    0     1.008    6.754599   -7.002982   -1.638998
  27 H     1.0000    0     1.008    2.456905   -8.533984   -2.138881
  28 H     1.0000    0     1.008   -2.128640   -7.839753   -1.780237
  29 H     1.0000    0     1.008   -5.664283   -5.067144   -0.768169
  30 H     1.0000    0     1.008   -2.336442    5.435917   -0.698424
  31 H     1.0000    0     1.008    0.482122    9.080480   -0.996793
  32 H     1.0000    0     1.008    5.113278    8.472352   -0.755446
  33 H     1.0000    0     1.008    6.856615    4.225787   -0.535596
  34 H     1.0000    0     1.008   -9.118449   -2.555549    0.877197
  35 H     1.0000    0     1.008  -10.652225    1.283330    3.031464
  36 H     1.0000    0     1.008   -7.613698    4.602271    4.262604
  37 H     1.0000    0     1.008   -3.178635    4.284282    3.060634

--------------------------------
INTERNAL COORDINATES (ANGSTROEM)
--------------------------------
 C      0   0   0     0.000000000000     0.00000000     0.00000000
 C      1   0   0     1.414663637289     0.00000000     0.00000000
 C      2   1   0     1.425464466595   120.50017092     0.00000000
 C      3   2   1     1.402572995186   120.37870927   359.52507513
 C      4   3   2     1.445307424461   117.94693509    16.12748089
 C      5   4   3     1.413729581635   119.92208573   340.69322951
 C      1   2   3     1.394930511913   118.45671062   171.73235787
 C      7   1   2     1.383311589432   121.27638397     3.21431978
 C      8   7   1     1.380002682622   120.46293425     0.40332729
 C      9   8   7     1.394270977959   120.27706623   357.43613185
 C     10   9   8     1.429407016748   121.13744392   181.90966474
 C     11  10   9     1.348417794490   121.18838493   175.30002270
 C      3   2   1     1.427378540689   119.45610970   181.65337547
 C     13   3   2     1.380711136842   119.42168335   177.01197804
 C     14  13   3     1.401254024792   121.00831219   351.32411572
 C     15  14  13     1.424504988643   119.62968264     5.65956968
 C      5   4   3     1.403236412892   121.37094978   155.02882730
 C     17   5   4     1.374480674545   121.43682151   178.86493340
 C     18  17   5     1.390589195289   119.78735242     0.86148013
 C     19  18  17     1.374896814762   119.71368986     4.09178727
 C     15  14  13     1.413289247893   120.98210891   188.19146409
 C     21  15  14     1.364448305594   120.98069298   173.11200101
 C     22  21  15     1.403159659843   119.64719559   357.68378575
 C     23  22  21     1.367821505243   120.59208200     4.52144795
 H      7   1   2     1.078461834640   120.30929317   183.30972400
 H      8   7   1     1.080439784119   119.57300608   179.73947806
 H      9   8   7     1.080558448346   120.42235208   178.69048652
 H     11  10   9     1.080882141745   117.85572194   356.04012085
 H     12  11  10     1.080833831160   121.03357276   180.74011107
 H     14  13   3     1.081138168759   119.75227568   175.52888146
 H     17   5   4     1.078912358554   119.25471420   355.48511304
 H     18  17   5     1.080094795624   120.08113292   179.86180156
 H     19  18  17     1.080107411215   120.12768016   181.12300535
 H     20  19  18     1.078388155645   118.54083160   174.93983480
 H     21  15  14     1.080811096328   118.29403744   355.03981062
 H     22  21  15     1.080124160395   120.63956877   180.38151587
 H     23  22  21     1.080282263687   119.42032806   185.40924541
 H     24  23  22     1.079232302031   119.36915802   183.76113770

---------------------------
INTERNAL COORDINATES (A.U.)
---------------------------
 C      0   0   0     0.000000000000     0.00000000     0.00000000
 C      1   0   0     2.673326846093     0.00000000     0.00000000
 C      2   1   0     2.693737455501   120.50017092     0.00000000
 C      3   2   1     2.650478843735   120.37870927   359.52507513
 C      4   3   2     2.731235211554   117.94693509    16.12748089
 C      5   4   3     2.671561736713   119.92208573   340.69322951
 C      1   2   3     2.636036643367   118.45671062   171.73235787
 C      7   1   2     2.614080061907   121.27638397     3.21431978
 C      8   7   1     2.607827134233   120.46293425     0.40332729
 C      9   8   7     2.634790304818   120.27706623   357.43613185
 C     10   9   8     2.701187795560   121.13744392   181.90966474
 C     11  10   9     2.548140345692   121.18838493   175.30002270
 C      3   2   1     2.697354531338   119.45610970   181.65337547
 C     13   3   2     2.609165918687   119.42168335   177.01197804
 C     14  13   3     2.647986350911   121.00831219   351.32411572
 C     15  14  13     2.691924304939   119.62968264     5.65956968
 C      5   4   3     2.651732521512   121.37094978   155.02882730
 C     17   5   4     2.597392051257   121.43682151   178.86493340
 C     18  17   5     2.627832743887   119.78735242     0.86148013
 C     19  18  17     2.598178442302   119.71368986     4.09178727
 C     15  14  13     2.670729626533   120.98210891   188.19146409
 C     21  15  14     2.578433621465   120.98069298   173.11200101
 C     22  21  15     2.651587479269   119.64719559   357.68378575
 C     23  22  21     2.584808044997   120.59208200     4.52144795
 H      7   1   2     2.037997513355   120.30929317   183.30972400
 H      8   7   1     2.041735296178   119.57300608   179.73947806
 H      9   8   7     2.041959539068   120.42235208   178.69048652
 H     11  10   9     2.042571230945   117.85572194   356.04012085
 H     12  11  10     2.042479937169   121.03357276   180.74011107
 H     14  13   3     2.043055051883   119.75227568   175.52888146
 H     17   5   4     2.038848880171   119.25471420   355.48511304
 H     18  17   5     2.041083362402   120.08113292   179.86180156
 H     19  18  17     2.041107202416   120.12768016   181.12300535
 H     20  19  18     2.037858280234   118.54083160   174.93983480
 H     21  15  14     2.042436974564   118.29403744   355.03981062
 H     22  21  15     2.041138853779   120.63956877   180.38151587
 H     23  22  21     2.041437625701   119.42032806   185.40924541
 H     24  23  22     2.039453485719   119.36915802   183.76113770

---------------------
BASIS SET INFORMATION
---------------------
There are 2 groups of distinct atoms

 Group   1 Type C   : 7s4p1d contracted to 3s2p1d pattern {511/31/1}
 Group   2 Type H   : 4s1p contracted to 2s1p pattern {31/1}

Atom   0C    basis set group =>   1
Atom   1C    basis set group =>   1
Atom   2C    basis set group =>   1
Atom   3C    basis set group =>   1
Atom   4C    basis set group =>   1
Atom   5C    basis set group =>   1
Atom   6C    basis set group =>   1
Atom   7C    basis set group =>   1
Atom   8C    basis set group =>   1
Atom   9C    basis set group =>   1
Atom  10C    basis set group =>   1
Atom  11C    basis set group =>   1
Atom  12C    basis set group =>   1
Atom  13C    basis set group =>   1
Atom  14C    basis set group =>   1
Atom  15C    basis set group =>   1
Atom  16C    basis set group =>   1
Atom  17C    basis set group =>   1
Atom  18C    basis set group =>   1
Atom  19C    basis set group =>   1
Atom  20C    basis set group =>   1
Atom  21C    basis set group =>   1
Atom  22C    basis set group =>   1
Atom  23C    basis set group =>   1
Atom  24H    basis set group =>   2
Atom  25H    basis set group =>   2
Atom  26H    basis set group =>   2
Atom  27H    basis set group =>   2
Atom  28H    basis set group =>   2
Atom  29H    basis set group =>   2
Atom  30H    basis set group =>   2
Atom  31H    basis set group =>   2
Atom  32H    basis set group =>   2
Atom  33H    basis set group =>   2
Atom  34H    basis set group =>   2
Atom  35H    basis set group =>   2
Atom  36H    basis set group =>   2
Atom  37H    basis set group =>   2
---------------------------------
AUXILIARY/J BASIS SET INFORMATION
---------------------------------
There are 2 groups of distinct atoms

 Group   1 Type C   : 12s5p4d2f1g contracted to 6s4p3d1f1g pattern {711111/2111/211/2/1}
 Group   2 Type H   : 5s2p1d contracted to 3s1p1d pattern {311/2/1}

Atom   0C    basis set group =>   1
Atom   1C    basis set group =>   1
Atom   2C    basis set group =>   1
Atom   3C    basis set group =>   1
Atom   4C    basis set group =>   1
Atom   5C    basis set group =>   1
Atom   6C    basis set group =>   1
Atom   7C    basis set group =>   1
Atom   8C    basis set group =>   1
Atom   9C    basis set group =>   1
Atom  10C    basis set group =>   1
Atom  11C    basis set group =>   1
Atom  12C    basis set group =>   1
Atom  13C    basis set group =>   1
Atom  14C    basis set group =>   1
Atom  15C    basis set group =>   1
Atom  16C    basis set group =>   1
Atom  17C    basis set group =>   1
Atom  18C    basis set group =>   1
Atom  19C    basis set group =>   1
Atom  20C    basis set group =>   1
Atom  21C    basis set group =>   1
Atom  22C    basis set group =>   1
Atom  23C    basis set group =>   1
Atom  24H    basis set group =>   2
Atom  25H    basis set group =>   2
Atom  26H    basis set group =>   2
Atom  27H    basis set group =>   2
Atom  28H    basis set group =>   2
Atom  29H    basis set group =>   2
Atom  30H    basis set group =>   2
Atom  31H    basis set group =>   2
Atom  32H    basis set group =>   2
Atom  33H    basis set group =>   2
Atom  34H    basis set group =>   2
Atom  35H    basis set group =>   2
Atom  36H    basis set group =>   2
Atom  37H    basis set group =>   2
---------------------------------
AUXILIARY/C BASIS SET INFORMATION
---------------------------------
There are 2 groups of distinct atoms

 Group   1 Type C   : 8s6p5d3f contracted to 6s5p4d1f pattern {311111/21111/2111/3}
 Group   2 Type H   : 4s3p2d contracted to 3s2p1d pattern {211/21/2}

Atom   0C    basis set group =>   1
Atom   1C    basis set group =>   1
Atom   2C    basis set group =>   1
Atom   3C    basis set group =>   1
Atom   4C    basis set group =>   1
Atom   5C    basis set group =>   1
Atom   6C    basis set group =>   1
Atom   7C    basis set group =>   1
Atom   8C    basis set group =>   1
Atom   9C    basis set group =>   1
Atom  10C    basis set group =>   1
Atom  11C    basis set group =>   1
Atom  12C    basis set group =>   1
Atom  13C    basis set group =>   1
Atom  14C    basis set group =>   1
Atom  15C    basis set group =>   1
Atom  16C    basis set group =>   1
Atom  17C    basis set group =>   1
Atom  18C    basis set group =>   1
Atom  19C    basis set group =>   1
Atom  20C    basis set group =>   1
Atom  21C    basis set group =>   1
Atom  22C    basis set group =>   1
Atom  23C    basis set group =>   1
Atom  24H    basis set group =>   2
Atom  25H    basis set group =>   2
Atom  26H    basis set group =>   2
Atom  27H    basis set group =>   2
Atom  28H    basis set group =>   2
Atom  29H    basis set group =>   2
Atom  30H    basis set group =>   2
Atom  31H    basis set group =>   2
Atom  32H    basis set group =>   2
Atom  33H    basis set group =>   2
Atom  34H    basis set group =>   2
Atom  35H    basis set group =>   2
Atom  36H    basis set group =>   2
Atom  37H    basis set group =>   2


           ************************************************************
           *        Program running with 104 parallel MPI-processes   *
           *              working on a common directory               *
           ************************************************************
------------------------------------------------------------------------------
                             ORCA STARTUP CALCULATIONS
                           -- RI-GTO INTEGRALS CHOSEN --
------------------------------------------------------------------------------
------------------------------------------------------------------------------
                   ___                                                        
                  /   \      - P O W E R E D   B Y -                         
                 /     \                                                     
                 |  |  |   _    _      __       _____    __    __             
                 |  |  |  | |  | |    /  \     |  _  \  |  |  /  |          
                  \  \/   | |  | |   /    \    | | | |  |  | /  /          
                 / \  \   | |__| |  /  /\  \   | |_| |  |  |/  /          
                |  |  |   |  __  | /  /__\  \  |    /   |      \           
                |  |  |   | |  | | |   __   |  |    \   |  |\   \          
                \     /   | |  | | |  |  |  |  | |\  \  |  | \   \       
                 \___/    |_|  |_| |__|  |__|  |_| \__\ |__|  \__/        
                                                                              
                      - O R C A' S   B I G   F R I E N D -                    
                                      &                                       
                       - I N T E G R A L  F E E D E R -                       
                                                                              
 v1 FN, 2020, v2 2021, v3 2022-2024                                           
------------------------------------------------------------------------------


----------------------
SHARK INTEGRAL PACKAGE
----------------------

Number of atoms                             ...     38
Number of basis functions                   ...    406
Number of shells                            ...    186
Maximum angular momentum                    ...      2
Integral batch strategy                     ... SHARK/LIBINT Hybrid
RI-J (if used) integral strategy            ... SPLIT-RIJ (Revised 2003 algorithm where possible)
Printlevel                                  ...      1
Contraction scheme used                     ... SEGMENTED contraction
Prescreening option                         ... SCHWARTZ
   Thresh                                   ... 1.000e-10
   Tcut                                     ... 1.000e-11
   Tpresel                                  ... 1.000e-11 
Coulomb Range Separation                    ... NOT USED
Exchange Range Separation                   ... NOT USED
Multipole approximations                    ... NOT USED
Finite Nucleus Model                        ... NOT USED
CABS basis                                  ... NOT available
Auxiliary Coulomb fitting basis             ... AVAILABLE
   # of basis functions in Aux-J            ...   1330
   # of shells in Aux-J                     ...    430
   Maximum angular momentum in Aux-J        ...      4
Auxiliary J/K fitting basis                 ... NOT available
Auxiliary Correlation fitting basis         ... AVAILABLE
   # of basis functions in Aux-C            ...   1348
   # of shells in Aux-C                     ...    468
   Maximum angular momentum in Aux-C        ...      3
Auxiliary 'external' fitting basis          ... NOT available

Checking pre-screening integrals            ... done (  0.0 sec) Dimension = 186
Check shell pair data                       ... done (  0.0 sec)
Shell pair information
Shell pair cut-off parameter TPreSel        ...   1.0e-11
Total number of shell pairs                 ...     17391
Shell pairs after pre-screening             ...     13169
Total number of primitive shell pairs       ...     64615
Primitive shell pairs kept                  ...     31190
          la=0 lb=0:   3842 shell pairs
          la=1 lb=0:   4802 shell pairs
          la=1 lb=1:   1570 shell pairs
          la=2 lb=0:   1676 shell pairs
          la=2 lb=1:   1100 shell pairs
          la=2 lb=2:    179 shell pairs

Calculating one electron integrals          ... done (  0.0 sec)
Calculating RI/J V-Matrix + Cholesky decomp.... done (  0.4 sec)
Calculating RI/C V-Matrix + Cholesky decomp.... done (  0.3 sec)
Calculating Nuclear repulsion               ... done (  0.0 sec) ENN=   1835.364193037067 Eh

Diagonalization of the overlap matrix:
Smallest eigenvalue                        ... 1.348e-04
Time for diagonalization                   ...    0.023 sec
Threshold for overlap eigenvalues          ... 1.000e-07
Number of eigenvalues below threshold      ... 0
Time for construction of square roots      ...    0.026 sec
Total time needed                          ...    0.064 sec

-------------------
DFT GRID GENERATION
-------------------

General Integration Accuracy     IntAcc      ... 4.959
Radial Grid Type                 RadialGrid  ... OptM3 with GC (2021)
Angular Grid (max. ang.)         AngularGrid ... 6 (Lebedev-590)
Angular grid pruning method      GridPruning ... 4 (adaptive)
Weight generation scheme         WeightScheme... mBecke (2022)
Basis function cutoff            BFCut       ... 1.0000e-10
Integration weight cutoff        WCut        ... 1.0000e-14
Partially contracted basis set               ... off
Rotationally invariant grid construction     ... off
Angular grids for H and He will be reduced by one unit

Total number of grid points                  ...   457284
Total number of batches                      ...     7164
Average number of points per batch           ...       63
Average number of grid points per atom       ...    12034

--------------------
COSX GRID GENERATION
--------------------

GRIDX 1
-------
General Integration Accuracy     IntAcc      ... 4.020
Radial Grid Type                 RadialGrid  ... OptM3 with GC (2021)
Angular Grid (max. ang.)         AngularGrid ... 2 (Lebedev-110)
Angular grid pruning method      GridPruning ... 4 (adaptive)
Weight generation scheme         WeightScheme... mBecke (2022)
Basis function cutoff            BFCut       ... 1.0000e-10
Integration weight cutoff        WCut        ... 1.0000e-14
Partially contracted basis set               ... on
Rotationally invariant grid construction     ... off
Angular grids for H and He will be reduced by one unit

Total number of grid points                  ...    52097
Total number of batches                      ...      426
Average number of points per batch           ...      122
Average number of grid points per atom       ...     1371
UseSFitting                                  ... on

GRIDX 2
-------
General Integration Accuracy     IntAcc      ... 4.338
Radial Grid Type                 RadialGrid  ... OptM3 with GC (2021)
Angular Grid (max. ang.)         AngularGrid ... 3 (Lebedev-194)
Angular grid pruning method      GridPruning ... 4 (adaptive)
Weight generation scheme         WeightScheme... mBecke (2022)
Basis function cutoff            BFCut       ... 1.0000e-10
Integration weight cutoff        WCut        ... 1.0000e-14
Partially contracted basis set               ... on
Rotationally invariant grid construction     ... off
Angular grids for H and He will be reduced by one unit

Total number of grid points                  ...   114167
Total number of batches                      ...      913
Average number of points per batch           ...      125
Average number of grid points per atom       ...     3004
UseSFitting                                  ... on

GRIDX 3
-------
General Integration Accuracy     IntAcc      ... 4.871
Radial Grid Type                 RadialGrid  ... OptM3 with GC (2021)
Angular Grid (max. ang.)         AngularGrid ... 4 (Lebedev-302)
Angular grid pruning method      GridPruning ... 4 (adaptive)
Weight generation scheme         WeightScheme... mBecke (2022)
Basis function cutoff            BFCut       ... 1.0000e-10
Integration weight cutoff        WCut        ... 1.0000e-14
Partially contracted basis set               ... on
Rotationally invariant grid construction     ... off
Angular grids for H and He will be reduced by one unit

Total number of grid points                  ...   210725
Total number of batches                      ...     1664
Average number of points per batch           ...      126
Average number of grid points per atom       ...     5545
UseSFitting                                  ... on
Initializing property integral containers    ... done (  0.0 sec)

SHARK setup successfully completed in  20.0 seconds

Maximum memory used throughout the entire STARTUP-calculation: 89.6 MB


           ************************************************************
           *        Program running with 104 parallel MPI-processes   *
           *              working on a common directory               *
           ************************************************************
-------------------------------------------------------------------------------
                                 ORCA GUESS
                   Start orbitals & Density for SCF / CASSCF
-------------------------------------------------------------------------------

------------
SCF SETTINGS
------------
Hamiltonian:
 Density Functional     Method          .... DFT(GTOs)
 Exchange Functional    Exchange        .... PBE
   PBE kappa parameter   XKappa         ....  0.804000
   PBE mue parameter    XMuePBE         ....  0.219520
 Correlation Functional Correlation     .... P86
 LDA part of GGA corr.  LDAOpt          .... VWN-5
 Gradients option       PostSCFGGA      .... off
 Hybrid DFT is turned on
   Fraction HF Exchange ScalHFX         ....  0.690000
   Scaling of DF-GGA-X  ScalDFX         ....  0.310000
   Scaling of DF-GGA-C  ScalDFC         ....  0.403800
   Scaling of DF-LDA-C  ScalLDAC        ....  0.403800
   Perturbative correction              ....  1.000000
 RI-approximation to the Coulomb term is turned on
   Number of AuxJ basis functions       .... 1330
   RIJ-COSX (HFX calculated with COS-X)).... on


General Settings:
 Integral files         IntName         .... hc_c24h14_0pent_2_dz_ri
 Hartree-Fock type      HFTyp           .... RHF
 Total Charge           Charge          ....    0
 Multiplicity           Mult            ....    1
 Number of Electrons    NEL             ....  158
 Basis Dimension        Dim             ....  406
 Nuclear Repulsion      ENuc            ....   1835.3641930371 Eh

Convergence Acceleration:
 AO-DIIS                CNVDIIS         .... on
   Start iteration      DIISMaxIt       ....    12
   Startup error        DIISStart       ....  0.200000
   # of expansion vecs  DIISMaxEq       ....     5
   Bias factor          DIISBfac        ....   1.050
   Max. coefficient     DIISMaxC        ....  10.000
 MO-DIIS                CNVKDIIS        .... off
 Trust-Rad. Augm. Hess. CNVTRAH         .... auto
   Auto Start mean grad. ratio tolernc. ....  1.125000
   Auto Start start iteration           ....    50
   Auto Start num. interpolation iter.  ....    10
   Max. Number of Micro iterations      ....    24
   Max. Number of Macro iterations      .... Maxiter - #DIIS iter
   Number of Davidson start vectors     ....     2
   Converg. threshold    (grad. norm)   ....   5.000e-05
   Grad. Scal. Fac. for Micro threshold ....   0.100
   Minimum threshold for Micro iter.    ....   1.000e-02
   NR start threshold (gradient norm)   ....   1.000e-04
   Initial trust radius                 ....   0.400
   Minimum AH scaling param. (alpha)    ....   1.000
   Maximum AH scaling param. (alpha)    .... 1000.000
   Quad. conv. algorithm                .... NR
   White noise on init. David. guess    .... on
   Maximum white noise                  ....   0.010
   Pseudo random numbers                .... off
   Inactive MOs                         .... canonical
   Orbital update algorithm             .... Taylor
   Preconditioner                       .... Diag
   Full preconditioner red. dimension   ....   250
 SOSCF                  CNVSOSCF        .... on
   Start iteration      SOSCFMaxIt      ....   150
   Startup grad/error   SOSCFStart      ....  0.003300
   Hessian update       SOSCFHessUp     .... L-BFGS
 Level Shifting         CNVShift        .... on
   Level shift para.    LevelShift      ....    0.2500
   Turn off err/grad.   ShiftErr        ....    0.0010
 Zerner damping         CNVZerner       .... off
 Static damping         CNVDamp         .... on
   Fraction old density DampFac         ....    0.7000
   Max. Damping (<1)    DampMax         ....    0.9800
   Min. Damping (>=0)   DampMin         ....    0.0000
   Turn off err/grad.   DampErr         ....    0.1000

SCF Procedure:
 Maximum # iterations   MaxIter         ....   125
 SCF integral mode      SCFMode         .... Direct
   Integral package                     .... SHARK and LIBINT hybrid scheme
 Reset frequency        DirectResetFreq ....    20
 Integral Threshold     Thresh          ....  1.000e-10 Eh
 Primitive CutOff       TCut            ....  1.000e-11 Eh

Convergence Tolerance:
 Convergence Check Mode ConvCheckMode   .... Total+1el-Energy
 Convergence forced     ConvForced      .... 0
 Energy Change          TolE            ....  1.000e-06 Eh
 1-El. energy change                    ....  1.000e-03 Eh
 Orbital Gradient       TolG            ....  5.000e-05
 Orbital Rotation angle TolX            ....  5.000e-05
 DIIS Error             TolErr          ....  1.000e-06

------------------------------
INITIAL GUESS: MODEL POTENTIAL
------------------------------
Loading Hartree-Fock densities                     ... done
Calculating cut-offs                               ... done
Initializing the effective Hamiltonian             ... done
Setting up the integral package (SHARK)            ... done
Starting the Coulomb interaction                   ... done (   0.1 sec)
Making the grid                                    ... done (   0.3 sec)
Mapping shells                                     ... done
Starting the XC term evaluation                    ... done (   0.0 sec)
  promolecular density results
     # of electrons  =    158.001838239
     EX              =   -127.050588138
     EC              =      0.198136498
     EX+EC           =   -126.852451640
Transforming the Hamiltonian                       ... done (   0.0 sec)
Diagonalizing the Hamiltonian                      ... done (   0.0 sec)
Back transforming the eigenvectors                 ... done (   0.0 sec)
Now organizing SCF variables                       ... done
                      ------------------
                      INITIAL GUESS DONE (   0.6 sec)
                      ------------------
             **** ENERGY FILE WAS UPDATED (hc_c24h14_0pent_2_dz_ri.en.tmp) ****
Finished Guess after  15.2 sec
Maximum memory used throughout the entire GUESS-calculation: 30.7 MB


           ************************************************************
           *        Program running with 104 parallel MPI-processes   *
           *              working on a common directory               *
           ************************************************************

-------------------------------------------------------------------------------------------
                                      ORCA LEAN-SCF
                              memory conserving SCF solver
-------------------------------------------------------------------------------------------

----------------------------------------D-I-I-S--------------------------------------------
Iteration    Energy (Eh)           Delta-E    RMSDP     MaxDP     DIISErr   Damp  Time(sec)
-------------------------------------------------------------------------------------------
               ***  Starting incremental Fock matrix formation  ***
    1    -918.1384743616604283     0.00e+00  3.75e-03  1.06e-01  1.17e-01  0.700   1.8
    2    -918.2844173576413596    -1.46e-01  2.85e-03  7.92e-02  7.48e-02  0.700   1.8
                               ***Turning on AO-DIIS***
    3    -918.3721697419850898    -8.78e-02  1.90e-03  5.46e-02  4.51e-02  0.700   1.7
    4    -918.4273374024278382    -5.52e-02  4.48e-03  1.30e-01  3.08e-02  0.000   1.7
                              *** Initializing SOSCF ***
---------------------------------------S-O-S-C-F--------------------------------------
Iteration    Energy (Eh)           Delta-E    RMSDP     MaxDP     MaxGrad    Time(sec)
--------------------------------------------------------------------------------------
    5    -918.5474763634506417    -1.20e-01  1.93e-04  4.34e-03  2.44e-03     1.9
               *** Restarting incremental Fock matrix formation ***
    6    -918.5477743187066153    -2.98e-04  1.05e-04  2.64e-03  7.56e-04     1.7
    7    -918.5478488729731907    -7.46e-05  8.06e-05  1.62e-03  6.77e-04     1.8
    8    -918.5478715258682314    -2.27e-05  3.19e-05  6.89e-04  2.71e-04     1.6
    9    -918.5478766437759077    -5.12e-06  1.08e-05  3.29e-04  4.74e-05     1.8
   10    -918.5478771152825175    -4.72e-07  3.97e-06  9.70e-05  3.26e-05     1.6
                 **** Energy Check signals convergence ****

               *****************************************************
               *                     SUCCESS                       *
               *           SCF CONVERGED AFTER  10 CYCLES          *
               *****************************************************

Recomputing exchange energy using gridx3       ... done (    1.064 sec)
Old exchange energy                            :    -89.354961721 Eh
New exchange energy                            :    -89.354964400 Eh
Exchange energy change after final integration :     -0.000002679 Eh
Total energy after final integration           :   -918.547879795 Eh
             **** ENERGY FILE WAS UPDATED (hc_c24h14_0pent_2_dz_ri.en.tmp) ****

----------------
TOTAL SCF ENERGY
----------------

Total Energy       :       -918.54787979477510 Eh          -24994.95853 eV

Components:
Nuclear Repulsion  :       1835.36419303706725 Eh           49942.79874 eV
Electronic Energy  :      -2753.91207015234977 Eh          -74937.75719 eV
One Electron Energy:      -4889.26754250693557 Eh         -133043.73364 eV
Two Electron Energy:       2135.35547235458580 Eh           58105.97645 eV

Virial components:
Potential Energy   :      -1831.01347742334792 Eh          -49824.40974 eV
Kinetic Energy     :        912.46559762857282 Eh           24829.45122 eV
Virial Ratio       :          2.00666576601026

DFT components:
N(Alpha)           :       79.000005865381 electrons
N(Beta)            :       79.000005865381 electrons
N(Total)           :      158.000011730762 electrons
E(X)               :      -39.974501416467 Eh       
E(C)               :       -2.359192892890 Eh       
E(XC)              :      -42.333694309357 Eh       

---------------
SCF CONVERGENCE
---------------

  Last Energy change         ...    4.7151e-07  Tolerance :   1.0000e-06
  Last MAX-Density change    ...    9.7017e-05  Tolerance :   1.0000e-05
  Last RMS-Density change    ...    3.9739e-06  Tolerance :   1.0000e-06
  Last DIIS Error            ...    2.4419e-03  Tolerance :   1.0000e-06
  Last Orbital Gradient      ...    3.2611e-05  Tolerance :   5.0000e-05
  Last Orbital Rotation      ...    9.7857e-05  Tolerance :   5.0000e-05


----------------
ORBITAL ENERGIES
----------------

  NO   OCC          E(Eh)            E(eV) 
   0   2.0000     -10.840936      -294.9969 
   1   2.0000     -10.838932      -294.9423 
   2   2.0000     -10.838560      -294.9322 
   3   2.0000     -10.837942      -294.9154 
   4   2.0000     -10.837551      -294.9048 
   5   2.0000     -10.837038      -294.8908 
   6   2.0000     -10.835952      -294.8613 
   7   2.0000     -10.835650      -294.8530 
   8   2.0000     -10.834944      -294.8338 
   9   2.0000     -10.834608      -294.8247 
  10   2.0000     -10.830491      -294.7126 
  11   2.0000     -10.829283      -294.6798 
  12   2.0000     -10.829084      -294.6744 
  13   2.0000     -10.828897      -294.6693 
  14   2.0000     -10.828151      -294.6490 
  15   2.0000     -10.828051      -294.6463 
  16   2.0000     -10.827949      -294.6435 
  17   2.0000     -10.827516      -294.6317 
  18   2.0000     -10.827122      -294.6210 
  19   2.0000     -10.826894      -294.6148 
  20   2.0000     -10.826588      -294.6064 
  21   2.0000     -10.826466      -294.6031 
  22   2.0000     -10.825621      -294.5801 
  23   2.0000     -10.825527      -294.5776 
  24   2.0000      -1.091538       -29.7023 
  25   2.0000      -1.055390       -28.7186 
  26   2.0000      -1.045807       -28.4579 
  27   2.0000      -1.014552       -27.6074 
  28   2.0000      -0.986374       -26.8406 
  29   2.0000      -0.962193       -26.1826 
  30   2.0000      -0.951766       -25.8989 
  31   2.0000      -0.914898       -24.8956 
  32   2.0000      -0.908628       -24.7250 
  33   2.0000      -0.904545       -24.6139 
  34   2.0000      -0.879756       -23.9394 
  35   2.0000      -0.860063       -23.4035 
  36   2.0000      -0.790943       -21.5226 
  37   2.0000      -0.777741       -21.1634 
  38   2.0000      -0.771981       -21.0067 
  39   2.0000      -0.768604       -20.9148 
  40   2.0000      -0.733763       -19.9667 
  41   2.0000      -0.719420       -19.5764 
  42   2.0000      -0.695739       -18.9320 
  43   2.0000      -0.674671       -18.3587 
  44   2.0000      -0.656827       -17.8732 
  45   2.0000      -0.647656       -17.6236 
  46   2.0000      -0.625768       -17.0280 
  47   2.0000      -0.604472       -16.4485 
  48   2.0000      -0.603323       -16.4173 
  49   2.0000      -0.583765       -15.8851 
  50   2.0000      -0.575245       -15.6532 
  51   2.0000      -0.572041       -15.5660 
  52   2.0000      -0.554105       -15.0780 
  53   2.0000      -0.547255       -14.8916 
  54   2.0000      -0.536638       -14.6027 
  55   2.0000      -0.535397       -14.5689 
  56   2.0000      -0.528262       -14.3747 
  57   2.0000      -0.524916       -14.2837 
  58   2.0000      -0.516732       -14.0610 
  59   2.0000      -0.512351       -13.9418 
  60   2.0000      -0.495740       -13.4898 
  61   2.0000      -0.482423       -13.1274 
  62   2.0000      -0.478579       -13.0228 
  63   2.0000      -0.472788       -12.8652 
  64   2.0000      -0.464806       -12.6480 
  65   2.0000      -0.457822       -12.4580 
  66   2.0000      -0.452142       -12.3034 
  67   2.0000      -0.440578       -11.9887 
  68   2.0000      -0.428990       -11.6734 
  69   2.0000      -0.418376       -11.3846 
  70   2.0000      -0.411799       -11.2056 
  71   2.0000      -0.391613       -10.6563 
  72   2.0000      -0.364963        -9.9311 
  73   2.0000      -0.349775        -9.5178 
  74   2.0000      -0.318531        -8.6677 
  75   2.0000      -0.308670        -8.3993 
  76   2.0000      -0.299972        -8.1627 
  77   2.0000      -0.261600        -7.1185 
  78   2.0000      -0.232332        -6.3221 
  79   0.0000      -0.003868        -0.1052 
  80   0.0000       0.023462         0.6384 
  81   0.0000       0.054783         1.4907 
  82   0.0000       0.064909         1.7663 
  83   0.0000       0.079505         2.1635 
  84   0.0000       0.115846         3.1523 
  85   0.0000       0.133622         3.6360 
  86   0.0000       0.138723         3.7748 
  87   0.0000       0.144601         3.9348 
  88   0.0000       0.147411         4.0112 
  89   0.0000       0.158965         4.3256 
*Only the first 10 virtual orbitals were printed.
-------
TIMINGS
-------

Total SCF time: 0 days 0 hours 0 min 33 sec 

Total time                  ....      33.019 sec
Sum of individual times     ....      32.823 sec  ( 99.4%)

SCF preparation             ....      14.304 sec  ( 43.3%)
Fock matrix formation       ....      14.121 sec  ( 42.8%)
  Startup                   ....       1.160 sec  (  8.2% of F)
  Split-RI-J                ....       2.081 sec  ( 14.7% of F)
  Chain of spheres X        ....       5.303 sec  ( 37.6% of F)
  XC integration            ....       4.178 sec  ( 29.6% of F)
    XC Preparation          ....       0.000 sec  (  0.0% of XC)
    Basis function eval.    ....       0.293 sec  (  7.0% of XC)
    Density eval.           ....       0.179 sec  (  4.3% of XC)
    XC-Functional eval.     ....       0.040 sec  (  0.9% of XC)
    XC-Potential eval.      ....       0.149 sec  (  3.6% of XC)
Diagonalization             ....       0.000 sec  (  0.0%)
Density matrix formation    ....       1.082 sec  (  3.3%)
Total Energy calculation    ....       0.742 sec  (  2.2%)
Population analysis         ....       0.000 sec  (  0.0%)
Orbital Transformation      ....       0.326 sec  (  1.0%)
Orbital Orthonormalization  ....       0.000 sec  (  0.0%)
DIIS solution               ....       1.311 sec  (  4.0%)
SOSCF solution              ....       0.879 sec  (  2.7%)
Finished LeanSCF after  33.3 sec

Maximum memory used throughout the entire LEANSCF-calculation: 71.5 MB


           ************************************************************
           *        Program running with 104 parallel MPI-processes   *
           *              working on a common directory               *
           ************************************************************

------------------------------------------------------------------------------
                                ORCA  MP2 
------------------------------------------------------------------------------


-------------
RI-MP2 ENERGY
-------------
Dimension of the orbital basis            ...  406
Dimension of the AuxC basis               ... 1348
Memory devoted to MP2                     ... 4096 MB   
Data format for matrix containers         ... DOUBLE
Compression type for matrix containers    ... UNCOMPRESSED
Scaling for aa/bb pairs                   ...   5.710e-02
Scaling for ab pairs                      ...   5.979e-01
Overall scaling of the MP2 energy         ...   1.000e+00

-----------------------
SHARK RI TRANSFORMATION
-----------------------

Number of basis functions                ...    406
Number of aux functions                  ...   1348
Number of operators                      ...      1
Generation of IJK                        ... NO
Generation of IAK                        ... YES
Generation of ABK                        ... NO
Orbital Range Operator  0:    0-  78 to   79- 405

Aux basis identifier                     ...   AUXC
Contraction scheme used                  ... SEGMENTED
Do orthogonalization                     ... YES
All operator combinations                ... NO
Transpose (ia|K)                         ... NO
Integral generator used                  ... LIBINT
Starting integral generation + trafo... 
Half trafo (segmented) done. Total time =  0.4 sec. integrals=  0.1 sec trafo=  0.0 sec
Integral generation and half transformation done (  0.4 sec)

Reading or making V^(-1/2)          ... done (  0.1 sec)
Sorting IAK integrals               ... done (  1.3 sec)

SHARK RI integral transformation done. Total time =  1.8 sec.

Opening buffers                              ... done

Starting loop over batches of integrals:

Operator 0  - window                       ... (  0- 78)x( 79-405)
Operator 0  - Memory available             ...  4096 MB
Operator 0  - Memory needed per MO         ...   3.4 MB
Operator 0  - Number of orbitals per batch ... 1
Operator 0  - Number of batches            ... 1

OPERATOR  0   PASS   0:  MOs     0 ...    0 +    1 ...    1 +    2 ...    2 +    3 ...    3
                            +    4 ...    4 +    5 ...    5 +    6 ...    6 +    7 ...    7
                            +    8 ...    8 +    9 ...    9 +   10 ...   10 +   11 ...   11
                            +   12 ...   12 +   13 ...   13 +   14 ...   14 +   15 ...   15
                            +   16 ...   16 +   17 ...   17 +   18 ...   18 +   19 ...   19
                            +   20 ...   20 +   21 ...   21 +   22 ...   22 +   23 ...   23
                            +   24 ...   24 +   25 ...   25 +   26 ...   26 +   27 ...   27
                            +   28 ...   28 +   29 ...   29 +   30 ...   30 +   31 ...   31
                            +   32 ...   32 +   33 ...   33 +   34 ...   34 +   35 ...   35
                            +   36 ...   36 +   37 ...   37 +   38 ...   38 +   39 ...   39
                            +   40 ...   40 +   41 ...   41 +   42 ...   42 +   43 ...   43
                            +   44 ...   44 +   45 ...   45 +   46 ...   46 +   47 ...   47
                            +   48 ...   48 +   49 ...   49 +   50 ...   50 +   51 ...   51
                            +   52 ...   52 +   53 ...   53 +   54 ...   54 +   55 ...   55
                            +   56 ...   56 +   57 ...   57 +   58 ...   58 +   59 ...   59
                            +   60 ...   60 +   61 ...   61 +   62 ...   62 +   63 ...   63
                            +   64 ...   64 +   65 ...   65 +   66 ...   66 +   67 ...   67
                            +   68 ...   68 +   69 ...   69 +   70 ...   70 +   71 ...   71
                            +   72 ...   72 +   73 ...   73 +   74 ...   74 +   75 ...   75
                            +   76 ...   76 +   77 ...   77 +   78 ...   78
  Reading integrals       ... ok
Time spent in pair loops =     0.725 sec

-----------------------------------------------
 RI-MP2 CORRELATION ENERGY:     -1.608827800 Eh
-----------------------------------------------


-------
TIMINGS
-------

Total time                :    3.086 sec
Integral trafo            :    1.899 sec ( 61.5%)
K(i,j) operators          :    0.007 sec (  0.2%)
T(i,j) pair energies      :    0.001 sec (  0.0%)
V**(-1/2)                 :    0.460 sec ( 14.9%)


---------------------------------------
MP2 TOTAL ENERGY:     -920.156707594 Eh
---------------------------------------

Maximum memory used throughout the entire MP2-calculation: 40.6 MB


-------------------------------------------------------------------------------
                          DFT DISPERSION CORRECTION                            
                                                                               
                                DFTD4 V3.4.0                                   
-------------------------------------------------------------------------------
The REV-DSD-PBEP86-2021 functional is recognized
A user input s6-coefficient scaling factor has been recognized
A user input a1-coefficient scaling factor has been recognized
A user input s8-coefficient scaling factor has been recognized
A user input a2-coefficient scaling factor has been recognized
A user input s9-coefficient scaling factor has been recognized
Active option DFTDOPT                   ...         5   

-------------------------   ----------------
Dispersion correction           -0.038757749
-------------------------   ----------------


-------------------------   --------------------
FINAL SINGLE POINT ENERGY      -920.195465343332
-------------------------   --------------------



           ************************************************************
           *        Program running with 104 parallel MPI-processes   *
           *              working on a common directory               *
           ************************************************************

------------------------------------------------------------------------------
                              ORCA PROPERTY CALCULATIONS
------------------------------------------------------------------------------

GBWName                                 ... hc_c24h14_0pent_2_dz_ri.gbw
Number of atoms                         ...     38
Number of basis functions               ...    406
Max core memory                         ...   1024 MB

Electric properties:
Dipole moment                           ... YES
Quadrupole moment                       ...  NO
Static polarizability (Dipole/Dipole)   ...  NO
Static polarizability (Dipole/Quad.)    ...  NO
Static polarizability (Quad./Quad.)     ...  NO
Static polarizability (Velocity)        ...  NO

Atomic electric properties:
Dipole moment                           ...  NO
Quadrupole moment                       ...  NO
Static polarizability                   ...  NO

Choice of electric origin               ... Center of mass
Position of electric origin             ...     0.040123    -0.130327    -0.043089

General magnetic properties:
Magnetizability                         ...  NO

EPR properties:
g-Tensor (aka g-matrix)                 ...  NO
Zero-Field splitting spin-orbit         ...  NO
Zero-field splitting spin-spin          ...  NO
Hyperfine couplings                     ...  NO (   0 nuclei)
Quadrupole couplings                    ...  NO (   0 nuclei)
Contact density                         ...  NO (   0 nuclei)

NMR properties:
Chemical shifts                         ...  NO (   0 nuclei)
Spin-rotation constants                 ...  NO (   0 nuclei)
Spin-spin couplings                     ...  NO (   0 nuclei,    0 pairs)

Choice of magnetic origin               ... GIAO
Position of magnetic origin             ...     0.000000     0.000000     0.000000

Properties with geometric perturbations:
SCF Hessian                             ...  NO
IR spectrum                             ...  NO
VCD spectrum                            ...  NO
X-ray spectroscopy properties:
SCF XES/XAS/RIXS spectra                ...  NO


-------------
DIPOLE MOMENT
-------------

Method             : SCF
Type of density    : Electron Density
Multiplicity       :   1
Irrep              :   0
Energy             :  -918.5478797947750991 Eh
Relativity type    : 
Basis              : AO
                                X                 Y                 Z
Electronic contribution:      0.855969559      -2.671572047      -0.873148216
Nuclear contribution   :     -0.826280690       2.685985567       0.885318008
                        -----------------------------------------
Total Dipole Moment    :      0.029688870       0.014413521       0.012169792
                        -----------------------------------------
Magnitude (a.u.)       :      0.035175025
Magnitude (Debye)      :      0.089407809



--------------------
Rotational spectrum 
--------------------
 
Rotational constants in cm-1:             0.012313             0.008323             0.005112 
Rotational constants in MHz :           369.135205           249.511304           153.265449 

Dipole components along the rotational axes: 
x,y,z [a.u.] :    -0.022069     0.022305     0.015897 
x,y,z [Debye]:    -0.056096     0.056695     0.040407 

 

Dipole moment calculation done in   0.1 sec 

Maximum memory used throughout the entire PROP-calculation: 25.0 MB

--------------------------------
SUGGESTED CITATIONS FOR THIS RUN
--------------------------------

Below you find a list of papers that are relevant to this ORCA run
We neither can nor want to force you to cite these papers, but we appreciate if you do
You receive ORCA, which is the product of decades of hard work by many enthusiastic individuals, for free
The only thing we kindly ask in return is that you cite our papers,
We deeply appreciate it, if you show your appreciation for ORCA by not just citing the generic ORCA reference.

Please note that relegating all ORCA citations to the supporting information does *not* help us.
SI sections are not indexed - citations you put there will not count into any citation statistics
But we need these citations in order to attract the funding resources that allow us to do what we are doing

Therefore, if you are a happy ORCA user, please consider citing a few of the papers listed below in the main body of your paper

In addition to the list printed below, the program has created the file hc_c24h14_0pent_2_dz_ri.bibtex that contains the list in bibtex format
You can import this file easily into all common literature databanks and citation aid programs


List of essential papers. We consider these as the minimum necessary citations

  1. Neese,F.
     Software update: the ORCA program system, version 5.0
     WIRES Comput. Molec. Sci., 2022 12(1)e1606
     doi.org/10.1002/wcms.1606

List of papers to cite with high priority. The work reported in these papers was absolutely
necessary for this run to complete.
Our perspective: the developers of density functionals and basis sets usually get cited in chemistry papers
Good! But without the algorithms to do something with them, the functionals or basis sets would not do anything.
Hence, in our opinion, the algorithm design and method developments papers are equally worthy of getting cited

  1. Neese,F.
     An improvement of the resolution of the identity approximation for the formation of the Coulomb matrix
     J. Comp. Chem., 2003 24(14)1740-1747
     doi.org/10.1002/jcc.10318
  2. Neese,F.; Wennmohs,F.; Hansen,A.; Becker,U.
     Efficient, approximate and parallel Hartree-Fock and hybrid DFT calculations. A 'chain-of-spheres' algorithm for the Hartree-Fock exchange
     Chem. Phys., 2009 356(1-3)98-109
     doi.org/10.1016/j.chemphys.2008.10.036
  3. Kossmann,S.; Neese,F.
     Efficient Structure Optimization with Second-Order Many-Body Perturbation Theory: The RIJCOSX-MP2 Method
     J. Theo. Comp. Chem., 2010 6 2325-2338
     doi.org/10.1021/ct100199k
  4. Helmich-Paris,B.; de Souza,B.; Neese,F.; Izsák,R.
     An improved chain of spheres for exchange algorithm
     J. Chem. Phys., 2021 155 104109
     doi.org/doi: 10.1063/5.0058766.
  5. Neese,F.
     The SHARK Integral Generation and Digestion System
     J. Comp. Chem., 2022  1-16
     doi.org/10.1002/jcc.26942
  6. Caldeweyher,E.; Bannwarth,C.; Grimme,S.
     Extension of the D3 dispersion coefficient model
     J. Chem. Phys., 2017 147 034112
     doi.org/10.1063/1.4993215
  7. Caldeweyher,E.; Ehlert,S.; Hansen,A.; Neugebauer,H.; Spicher,S.; Bannwarth,C.; Grimme,S.
     A generally applicable atomic-charge dependent London dispersion correction
     J. Chem. Phys., 2019 150 154122
     doi.org/10.1063/1.5090222
  8. Caldeweyher,E.; Mewes,J.; Ehlert,S.; Grimme,S.
     Extension and evaluation of the D4 London-dispersion model for periodic systems
     Phys. Chem. Chem. Phys., 2020 22(16)8499-8512
     doi.org/10.1039/D0CP00502A
  9. Wittmann,L.; Gordiy,I.; Friede,M.; Helmich-Paris,B.; Grimme,S.; Hansen,A.; Bursch,M.
     Extension of the D3 and D4 London Dispersion Corrections to the full Actinides Series
     Phys. Chem. Chem. Phys., 2024 26(32)21379-21394
     doi.org/https://doi.org/10.1039/D4CP01514B 

List of suggested additional citations. These are papers that are important in the 'surrounding' of 
of this run, or papers that preceded the highly important papers. If you like your results we are grateful for a citation.

  1. Izsak,R.; Neese,F.
     An overlap fitted chain of spheres exchange method
     J. Chem. Phys., 2011 135 144105
     doi.org/10.1063/1.3646921
  2. Izsak,R.; Hansen,A.; Neese,F.
     The resolution of identity and chain of spheres approximations for the LPNO-CCSD singles Fock term
     Molec. Phys., 2012 110 2413-2417
     doi.org/10.1080/00268976.2012.687466
  3. Neese,F.
     The ORCA program system
     WIRES Comput. Molec. Sci., 2012 2(1)73-78
     doi.org/10.1002/wcms.81
  4. Izsak,R.; Neese,F.; Klopper,W.
     Robust fitting techniques in the chain of spheres approximation to the Fock exchange: The role of the complementary space
     J. Chem. Phys., 2013 139 
     doi.org/10.1063/1.4819264
  5. Neese,F.
     Software update: the ORCA program system, version 4.0
     WIRES Comput. Molec. Sci., 2018 8(1)1-6
     doi.org/10.1002/wcms.1327
  6. Neese,F.; Wennmohs,F.; Becker,U.; Riplinger,C.
     The ORCA quantum chemistry program package
     J. Chem. Phys., 2020 152 Art. No. L224108
     doi.org/10.1063/5.0004608

List of optional additional citations

  1. Neese,F.
     Approximate second-order SCF convergence for spin unrestricted wavefunctions
     Chem. Phys. Lett., 2000 325(1-3)93-98
     doi.org/10.1016/s0009-2614(00)00662-x

Timings for individual modules:

Sum of individual times          ...      123.324 sec (=   2.055 min)
Startup calculation              ...       35.899 sec (=   0.598 min)  29.1 %
SCF iterations                   ...       52.127 sec (=   0.869 min)  42.3 %
Property calculations            ...       15.914 sec (=   0.265 min)  12.9 %
MP2 module                       ...       19.384 sec (=   0.323 min)  15.7 %
                             ****ORCA TERMINATED NORMALLY****
TOTAL RUN TIME: 0 days 0 hours 2 minutes 31 seconds 833 msec
