
                                 *****************
                                 * O   R   C   A *
                                 *****************

                                            #,                                       
                                            ###                                      
                                            ####                                     
                                            #####                                    
                                            ######                                   
                                           ########,                                 
                                     ,,################,,,,,                         
                               ,,#################################,,                 
                          ,,##########################################,,             
                       ,#########################################, ''#####,          
                    ,#############################################,,   '####,        
                  ,##################################################,,,,####,       
                ,###########''''           ''''###############################       
              ,#####''   ,,,,##########,,,,          '''####'''          '####       
            ,##' ,,,,###########################,,,                        '##       
           ' ,,###''''                  '''############,,,                           
         ,,##''                                '''############,,,,        ,,,,,,###''
      ,#''                                            '''#######################'''  
     '                                                          ''''####''''         
             ,#######,   #######,   ,#######,      ##                                
            ,#'     '#,  ##    ##  ,#'     '#,    #''#        ,####,   ,####,        
            ##       ##  ##   ,#'  ##            #'  '#       #'       #'  '#        
            ##       ##  #######   ##           ,######,      #####,   #    #        
            '#,     ,#'  ##    ##  '#,     ,#' ,#      #,     #,   #   #,  ,#        
             '#######'   ##     ##  '#######'  #'      '#     '####' # '####'        



                #########################################################
                #                        -***-                          #
                #          Department of theory and spectroscopy        #
                #                                                       #
                #                      Frank Neese                      #
                #                                                       #
                #     Directorship, Architecture, Infrastructure        #
                #                    SHARK, DRIVERS                     #
                #        Core code/Algorithms in most modules           #
                #                                                       #
                #        Max Planck Institute fuer Kohlenforschung      #
                #                Kaiser Wilhelm Platz 1                 #
                #                 D-45470 Muelheim/Ruhr                 #
                #                      Germany                          #
                #                                                       #
                #                  All rights reserved                  #
                #                        -***-                          #
                #########################################################


                         Program Version 6.0.1  -  RELEASE   -


 With contributions from (in alphabetic order):
[Max-Planck-Institut fuer Kohlenforschung]                               
  Daniel Aravena         : Magnetic Suceptibility                        
  Michael Atanasov       : Ab Initio Ligand Field Theory (pilot matlab implementation)
  Alexander A. Auer      : GIAO ZORA, VPT2 properties, NMR spectrum      
  Ute Becker             : All parallelization in ORCA, NUMFREQ, NUMCALC 
  Giovanni Bistoni       : ED, misc. LED, open-shell LED, HFLD           
  Martin Brehm           : Molecular dynamics                            
  Dmytro Bykov           : pre 5.0 version of the SCF Hessian            
  Marcos Casanova-Páez   : Triplet and SCS-CIS(D). UHF-(DLPNO)-IP/EA/STEOM-CCSD. UHF-CVS-IP/STEOM-CCSD   
  Vijay G. Chilkuri      : MRCI spin determinant printing, contributions to CSF-ICE 
  Pauline Colinet        : FMM embedding                                 
  Dipayan Datta          : RHF DLPNO-CCSD density                        
  Achintya Kumar Dutta   : EOM-CC, STEOM-CC                              
  Nicolas Foglia         : Exact transition moments, OPA infrastructure, MCD improvements    
  Dmitry Ganyushin       : Spin-Orbit,Spin-Spin,Magnetic field MRCI      
  Miquel Garcia-Rates    : C-PCM and meta-GGA Hessian, CCSD/C-PCM, Gaussian charge scheme 
  Tiago L. C. Gouveia    : GS-ROHF, GS-ROCIS                             
  Yang Guo               : DLPNO-NEVPT2, F12-NEVPT2, CIM, IAO-localization        
  Andreas Hansen         : Spin unrestricted coupled pair/coupled cluster methods 
  Ingolf Harden          : AUTO-CI MPn and infrastructure                
  Benjamin Helmich-Paris : MC-RPA, TRAH-(SCF,CASSCF), AVAS, COSX integrals, SCF dyn. polar. 
  Lee Huntington         : MR-EOM, pCC                                   
  Robert Izsak           : Overlap fitted RIJCOSX, COSX-SCS-MP3, EOM     
  Riya Kayal             : Wick's Theorem for AUTO-CI, AUTO-CI UHF-CCSDT 
  Emily Kempfer          : AUTO-CI, RHF CISDT and CCSDT                  
  Christian Kollmar      : KDIIS, OOCD, Brueckner-CCSD(T), CCSD density, CASPT2, CASPT2-K, improved NEVPT2 
  Axel Koslowski         : Symmetry handling                             
  Simone Kossmann        : meta-GGA functionals, TD-DFT gradient, OOMP2, (MP2 Hessian; deprecated post 5.0) 
  Lucas Lang             : DCDCAS                                        
  Marvin Lechner         : AUTO-CI (C++ implementation), FIC-MRCC        
  Spencer Leger          : CASSCF response                               
  Dagmar Lenk            : GEPOL surface, SMD, ORCA-2-JSON               
  Dimitrios Liakos       : Extrapolation schemes; Compound Job, initial MDCI parallelization 
  Dimitrios Manganas     : Further ROCIS development; embedding schemes. LFT, Crystal Embedding 
  Dimitrios Pantazis     : SARC Basis sets                               
  Anastasios Papadopoulos: AUTO-CI, single reference methods and gradients 
  Taras Petrenko         : pre 6.0 DFT Hessian and TD-DFT gradient, (ASA, deprecated), ECA, 1-Electron XAS/XES, NRVS 
  Peter Pinski           : DLPNO-MP2, DLPNO-MP2 Gradient                 
  Christoph Reimann      : Effective Core Potentials                     
  Marius Retegan         : Local ZFS, SOC                                
  Christoph Riplinger    : Optimizer, TS searches, QM/MM, DLPNO-CCSD(T), (RO)-DLPNO pert. Triples 
  Michael Roemelt        : Original ROCIS implementation                 
  Masaaki Saitow         : Open-shell DLPNO-CCSD energy and density      
  Barbara Sandhoefer     : DKH picture change effects                    
  Kantharuban Sivalingam : CASSCF convergence/infrastructure, NEVPT2 and variants, FIC-MRCI 
  Bernardo de Souza      : ESD, SOC TD-DFT                               
  Georgi L. Stoychev     : AutoAux, RI-MP2 NMR, DLPNO-MP2 response, X2C  
  Van Anh Tran           : RI-MP2 g-tensors                              
  Willem Van den Heuvel  : Paramagnetic NMR                              
  Zikuan Wang            : NOTCH, Electric field optimization            
  Frank Wennmohs         : Technical directorship and infrastructure     
  Hang Xu                : AUTO-CI-Response properties                   
                                                                         
[FACCTs GmbH]                                                            
  Markus Bursch, Miquel Garcia-Rates, Christoph Riplinger, Bernardo de Souza, Georgi L. Stoychev 
                                                                 
  APM, Basis sets (HGBS, AHGBS, def-TZVP (Ac-Lr), def2-XVPD (La-Lu)), CI-OPT, improved COSX, DLPNO-Multilevel,           
  DOCKER, DRACO, updates on ESD, GOAT, IRC, LR-CPCM, MBIS, meta-GGA TD-DFT gradient, ML-optimized integration grids, 
  MM, NACMEs, nearIR, NEB, NEB-TS, NL-DFT gradient (VV10), 2- and 3-layer-ONIOM, interface openCOSMO-RS, QMMM,   
  Crystal-QMMM, SF, symmetry and pop. for TD-DFT, r2SCAN hybrids, SOLVATOR                                   
                                                                         
[Other institutions]                                                     
  V. Asgeirsson          : NEB                                           
  Christoph Bannwarth    : sTDA-DFT, sTD-DFT, PBEh-3c, B97-3c, D3        
  Sebastian Ehlert       : rSCAN, r2SCAN, r2SCAN-3c, D4, dhf basis sets  
  Marvin Friede          : D4 for Fr, Ra, Ac-Lr                          
  Lars Goerigk           : TD-DFT with DH, B97 family of functionals     
  Stefan Grimme          : VdW corrections, initial TS optimization, DFT functionals, gCP, sTDA/sTD-DF 
  Waldemar Hujo          : DFT-NL                                        
  H. Jonsson             : NEB                                           
  Holger Kruse           : gCP                                           
  Marcel Mueller         : wB97X-3c, vDZP basis set                      
  Hagen Neugebauer       : wr2SCAN                                       
  Tobias Risthaus        : range-separated hybrid DFT                    
  Lukas Wittmann         : regularized MP2, r2SCAN double-hybrids, wr2SCAN        
                                                                         
We gratefully acknowledge several colleagues who have allowed us to      
interface, adapt or use parts of their codes:                            
  Ed Valeev, F. Pavosevic, A. Kumar             : LibInt (2-el integral package), F12 methods 
  Garnet Chan, S. Sharma, J. Yang, R. Olivares  : DMRG                   
  Ulf Ekstrom                                   : XCFun DFT Library      
  Mihaly Kallay                                 : mrcc  (arbitrary order and MRCC methods)
  Frank Weinhold                                : gennbo (NPA and NBO analysis)           
  Simon Mueller                                 : openCOSMO-RS                            
  Christopher J. Cramer and Donald G. Truhlar   : smd solvation model                     
  S Lehtola, MJT Oliveira, MAL Marques          : LibXC Library                           
  Liviu Ungur et al                             : ANISO software                          


 Your calculation uses the libint2 library for the computation of 2-el integrals
 For citations please refer to: http://libint.valeyev.net

 Your ORCA version has been built with support for libXC version: 6.2.2
 For citations please refer to: https://libxc.gitlab.io

 This ORCA versions uses:
   CBLAS   interface :  Fast vector & matrix operations
   LAPACKE interface :  Fast linear algebra routines
   SCALAPACK package :  Parallel linear algebra routines
   Shared memory     :  Shared parallel matrices
   BLAS/LAPACK       :  OpenBLAS 0.3.27  USE64BITINT DYNAMIC_ARCH NO_AFFINITY SapphireRapids SINGLE_THREADED
        Core in use  :  SapphireRapids
   Copyright (c) 2011-2014, The OpenBLAS Project




***************************************
The coordinates will be read from file: /scratch/kx58/rs2200/dhdft/inputs/compas3x-xyzs/hc_c24h14_0pent_9.xyz
***************************************


Your calculation utilizes the atom-pairwise dispersion correction
based on EEQ partial charges (D4)


================================================================================

----- Orbital basis set information -----
Your calculation utilizes the basis: def2-QZVPP
   F. Weigend and R. Ahlrichs, Phys. Chem. Chem. Phys. 7, 3297 (2005).

================================================================================
                                        WARNINGS
                       Please study these warnings very carefully!
================================================================================


WARNING: No MP2 level density has been requested!
         To calculate MP2 level properties use
         %mp2 Density relaxed end
         or
         %mp2 Density unrelaxed end
         Otherwise for double-hybrid DFT only the energy is correct!

================================================================================
                                       INPUT FILE
================================================================================
NAME = hc_c24h14_0pent_9_qz_nori.inp
|  1> ! RKS revDSD-PBEP86-D4/2021 defgrid3  NORI NOPOP NoFrozencore NoUseSym
|  2> 
|  3> %basis
|  4>   Basis "def2-QZVPP"
|  5>   
|  6>   
|  7> end
|  8> 
|  9> %method
| 10>   ScalHFX 0.69
| 11>   ScalDFX 0.31
| 12>   ScalDFC 0.4038
| 13>   ScalLDAC 0.4038
| 14> 
| 15>   D4S6 0.4612
| 16>   D4S8 0.0
| 17>   D4A1 0.44
| 18>   D4A2 3.60
| 19> end
| 20> 
| 21> %mp2
| 22>   PS 0.5979
| 23>   PT 0.0571
| 24> end
| 25> 
| 26> %pal
| 27>     nprocs 104
| 28> end
| 29> 
| 30> *XYZFILE 0 1 /scratch/kx58/rs2200/dhdft/inputs/compas3x-xyzs/hc_c24h14_0pent_9.xyz
| 31> 
| 32>                          ****END OF INPUT****
================================================================================

                       ****************************
                       * Single Point Calculation *
                       ****************************

---------------------------------
CARTESIAN COORDINATES (ANGSTROEM)
---------------------------------
  C      1.779810   -0.604854    0.004850
  C      0.368642   -0.608241    0.005975
  C     -0.368591    0.608345    0.006008
  C      0.338228    1.847633    0.006803
  C      1.760512    1.820751    0.009180
  C      2.445709    0.654218    0.007862
  C      2.493252   -1.841485    0.000543
  C      1.762779   -3.064445    0.000812
  C      0.363200   -3.038497    0.004836
  C     -0.338176   -1.847530    0.006462
  C     -1.760461   -1.820647    0.008525
  C     -2.445658   -0.654114    0.007264
  C     -1.779758    0.604958    0.004645
  C     -2.493199    1.841591    0.000469
  C     -1.762726    3.064550    0.000954
  C     -0.363148    3.038601    0.005176
  C      3.901802   -1.924992   -0.005282
  C      4.548190   -3.130249   -0.010303
  C      3.822852   -4.330987   -0.009362
  C      2.459690   -4.294724   -0.003780
  C     -3.901749    1.925099   -0.005399
  C     -4.548136    3.130357   -0.010321
  C     -3.822798    4.331094   -0.009250
  C     -2.459636    4.294830   -0.003584
  H      2.285271    2.765788    0.011617
  H      3.523432    0.684438    0.009611
  H     -0.178247   -3.974541    0.005684
  H     -2.285220   -2.765685    0.010657
  H     -3.523381   -0.684335    0.008729
  H      0.178299    3.974645    0.006207
  H      4.495132   -1.024441   -0.006581
  H      5.628020   -3.163126   -0.015226
  H      4.349661   -5.273897   -0.013328
  H      1.883159   -5.209001   -0.003280
  H     -4.495081    1.024549   -0.006780
  H     -5.627967    3.163235   -0.015259
  H     -4.349606    5.274005   -0.013169
  H     -1.883104    5.209106   -0.002961

----------------------------
CARTESIAN COORDINATES (A.U.)
----------------------------
  NO LB      ZA    FRAG     MASS         X           Y           Z
   0 C     6.0000    0    12.011    3.363353   -1.143008    0.009165
   1 C     6.0000    0    12.011    0.696633   -1.149408    0.011291
   2 C     6.0000    0    12.011   -0.696535    1.149605    0.011353
   3 C     6.0000    0    12.011    0.639159    3.491521    0.012855
   4 C     6.0000    0    12.011    3.326886    3.440720    0.017348
   5 C     6.0000    0    12.011    4.621721    1.236292    0.014857
   6 C     6.0000    0    12.011    4.711563   -3.479903    0.001026
   7 C     6.0000    0    12.011    3.331169   -5.790962    0.001534
   8 C     6.0000    0    12.011    0.686349   -5.741927    0.009138
   9 C     6.0000    0    12.011   -0.639061   -3.491325    0.012211
  10 C     6.0000    0    12.011   -3.326789   -3.440525    0.016109
  11 C     6.0000    0    12.011   -4.621624   -1.236096    0.013726
  12 C     6.0000    0    12.011   -3.363255    1.143205    0.008777
  13 C     6.0000    0    12.011   -4.711464    3.480102    0.000886
  14 C     6.0000    0    12.011   -3.331069    5.791160    0.001803
  15 C     6.0000    0    12.011   -0.686250    5.742124    0.009780
  16 C     6.0000    0    12.011    7.373337   -3.637708   -0.009981
  17 C     6.0000    0    12.011    8.594833   -5.915314   -0.019471
  18 C     6.0000    0    12.011    7.224144   -8.184379   -0.017691
  19 C     6.0000    0    12.011    4.648141   -8.115852   -0.007143
  20 C     6.0000    0    12.011   -7.373237    3.637910   -0.010202
  21 C     6.0000    0    12.011   -8.594732    5.915518   -0.019504
  22 C     6.0000    0    12.011   -7.224041    8.184582   -0.017479
  23 C     6.0000    0    12.011   -4.648039    8.116052   -0.006773
  24 H     1.0000    0     1.008    4.318536    5.226581    0.021953
  25 H     1.0000    0     1.008    6.658322    1.293400    0.018163
  26 H     1.0000    0     1.008   -0.336837   -7.510794    0.010741
  27 H     1.0000    0     1.008   -4.318440   -5.226387    0.020138
  28 H     1.0000    0     1.008   -6.658225   -1.293205    0.016495
  29 H     1.0000    0     1.008    0.336936    7.510990    0.011729
  30 H     1.0000    0     1.008    8.494569   -1.935913   -0.012435
  31 H     1.0000    0     1.008   10.635417   -5.977442   -0.028774
  32 H     1.0000    0     1.008    8.219668   -9.966221   -0.025187
  33 H     1.0000    0     1.008    3.558655   -9.843585   -0.006199
  34 H     1.0000    0     1.008   -8.494471    1.936117   -0.012812
  35 H     1.0000    0     1.008  -10.635315    5.977648   -0.028836
  36 H     1.0000    0     1.008   -8.219564    9.966425   -0.024886
  37 H     1.0000    0     1.008   -3.558551    9.843784   -0.005596

--------------------------------
INTERNAL COORDINATES (ANGSTROEM)
--------------------------------
 C      0   0   0     0.000000000000     0.00000000     0.00000000
 C      1   0   0     1.411171857261     0.00000000     0.00000000
 C      2   1   0     1.422530011820   121.07772851     0.00000000
 C      3   2   1     1.426685030918   119.08680961   359.91171119
 C      4   3   2     1.422540083582   118.61512057   359.92456707
 C      5   4   3     1.352884372972   121.51174800     0.14005796
 C      1   2   3     1.427682188236   119.84416232   180.19905142
 C      7   1   2     1.424507677237   119.16829076   359.84458888
 C      8   7   1     1.399824547915   119.78760278     0.00000000
 C      9   8   7     1.382148708874   121.55661231     0.10387298
 C     10   9   8     1.422540049552   121.57727213   179.90420825
 C     11  10   9     1.352884389448   121.51175149   180.14161983
 C      3   2   1     1.411171894803   121.07773243   179.88205171
 C     13   3   2     1.427682232184   119.84416509   180.19637219
 C     14  13   3     1.424507702452   119.16828876   359.85178738
 C      4   3   2     1.382148669936   119.80761037   179.92019525
 C      7   1   2     1.411035003272   123.37488515   179.78411893
 C     17   7   1     1.367657792057   121.59831997   180.05030004
 C     18  17   7     1.402813603965   120.65940691     0.00000000
 C     19  18  17     1.363655689947   119.61127138     0.00000000
 C     14  13   3     1.411035008134   123.37489999   179.79276866
 C     21  14  13     1.367657790023   121.59832611   180.05180808
 C     22  21  14     1.402813600360   120.65941062     0.00000000
 C     23  22  21     1.363655651325   119.61126537     0.00000000
 H      5   4   3     1.080959176763   117.95976783   180.11129706
 H      6   5   4     1.078147541443   118.82274727   179.99028468
 H      9   8   7     1.081361910392   118.98473683   180.04195090
 H     11  10   9     1.080959159680   117.95976663     0.11188307
 H     12  11  10     1.078147495180   118.82272652   179.98806503
 H     16   4   3     1.081361918028   119.45862158   179.97458351
 H     17   7   1     1.078441274329   119.98618199     0.00000000
 H     18  17   7     1.080342033811   119.94941778   179.96815016
 H     19  18  17     1.080103371036   119.67208602   180.00329314
 H     20  19  18     1.080875045497   120.71100657   179.98052810
 H     21  14  13     1.078441240771   119.98619089     0.00000000
 H     22  21  14     1.080341982982   119.94941489   179.96941127
 H     23  22  21     1.080103382521   119.67208758   180.00144772
 H     24  23  22     1.080875047758   120.71100561   179.98195672

---------------------------
INTERNAL COORDINATES (A.U.)
---------------------------
 C      0   0   0     0.000000000000     0.00000000     0.00000000
 C      1   0   0     2.666728338120     0.00000000     0.00000000
 C      2   1   0     2.688192139623   121.07772851     0.00000000
 C      3   2   1     2.696043987801   119.08680961   359.91171119
 C      4   3   2     2.688211172495   118.61512057   359.92456707
 C      5   4   3     2.556580955779   121.51174800     0.14005796
 C      1   2   3     2.697928342044   119.84416232   180.19905142
 C      7   1   2     2.691929385646   119.16829076   359.84458888
 C      8   7   1     2.645285031100   119.78760278     0.00000000
 C      9   8   7     2.611882536125   121.55661231     0.10387298
 C     10   9   8     2.688211108189   121.57727213   179.90420825
 C     11  10   9     2.556580986915   121.51175149   180.14161983
 C      3   2   1     2.666728409064   121.07773243   179.88205171
 C     13   3   2     2.697928425092   119.84416509   180.19637219
 C     14  13   3     2.691929433296   119.16828876   359.85178738
 C      4   3   2     2.611882462542   119.80761037   179.92019525
 C      7   1   2     2.666469721560   123.37488515   179.78411893
 C     17   7   1     2.584498671912   121.59831997   180.05030004
 C     18  17   7     2.650933528433   120.65940691     0.00000000
 C     19  18  17     2.576935794963   119.61127138     0.00000000
 C     14  13   3     2.666469730748   123.37489999   179.79276866
 C     21  14  13     2.584498668068   121.59832611   180.05180808
 C     22  21  14     2.650933521620   120.65941062     0.00000000
 C     23  22  21     2.576935721979   119.61126537     0.00000000
 H      5   4   3     2.042716806032   117.95976783   180.11129706
 H      6   5   4     2.037403585288   118.82274727   179.99028468
 H      9   8   7     2.043477862294   118.98473683   180.04195090
 H     11  10   9     2.042716773749   117.95976663     0.11188307
 H     12  11  10     2.037403497864   118.82272652   179.98806503
 H     16   4   3     2.043477876724   119.45862158   179.97458351
 H     17   7   1     2.037958659999   119.98618199     0.00000000
 H     18  17   7     2.041550574867   119.94941778   179.96815016
 H     19  18  17     2.041099567584   119.67208602   180.00329314
 H     20  19  18     2.042557820980   120.71100657   179.98052810
 H     21  14  13     2.037958596583   119.98619089     0.00000000
 H     22  21  14     2.041550478814   119.94941489   179.96941127
 H     23  22  21     2.041099589286   119.67208758   180.00144772
 H     24  23  22     2.042557825252   120.71100561   179.98195672

---------------------
BASIS SET INFORMATION
---------------------
There are 2 groups of distinct atoms

 Group   1 Type C   : 15s8p3d2f1g contracted to 7s4p3d2f1g pattern {8211111/5111/111/11/1}
 Group   2 Type H   : 7s3p2d1f contracted to 4s3p2d1f pattern {4111/111/11/1}

Atom   0C    basis set group =>   1
Atom   1C    basis set group =>   1
Atom   2C    basis set group =>   1
Atom   3C    basis set group =>   1
Atom   4C    basis set group =>   1
Atom   5C    basis set group =>   1
Atom   6C    basis set group =>   1
Atom   7C    basis set group =>   1
Atom   8C    basis set group =>   1
Atom   9C    basis set group =>   1
Atom  10C    basis set group =>   1
Atom  11C    basis set group =>   1
Atom  12C    basis set group =>   1
Atom  13C    basis set group =>   1
Atom  14C    basis set group =>   1
Atom  15C    basis set group =>   1
Atom  16C    basis set group =>   1
Atom  17C    basis set group =>   1
Atom  18C    basis set group =>   1
Atom  19C    basis set group =>   1
Atom  20C    basis set group =>   1
Atom  21C    basis set group =>   1
Atom  22C    basis set group =>   1
Atom  23C    basis set group =>   1
Atom  24H    basis set group =>   2
Atom  25H    basis set group =>   2
Atom  26H    basis set group =>   2
Atom  27H    basis set group =>   2
Atom  28H    basis set group =>   2
Atom  29H    basis set group =>   2
Atom  30H    basis set group =>   2
Atom  31H    basis set group =>   2
Atom  32H    basis set group =>   2
Atom  33H    basis set group =>   2
Atom  34H    basis set group =>   2
Atom  35H    basis set group =>   2
Atom  36H    basis set group =>   2
Atom  37H    basis set group =>   2


           ************************************************************
           *        Program running with 104 parallel MPI-processes   *
           *              working on a common directory               *
           ************************************************************
------------------------------------------------------------------------------
                             ORCA STARTUP CALCULATIONS
------------------------------------------------------------------------------
------------------------------------------------------------------------------
                   ___                                                        
                  /   \      - P O W E R E D   B Y -                         
                 /     \                                                     
                 |  |  |   _    _      __       _____    __    __             
                 |  |  |  | |  | |    /  \     |  _  \  |  |  /  |          
                  \  \/   | |  | |   /    \    | | | |  |  | /  /          
                 / \  \   | |__| |  /  /\  \   | |_| |  |  |/  /          
                |  |  |   |  __  | /  /__\  \  |    /   |      \           
                |  |  |   | |  | | |   __   |  |    \   |  |\   \          
                \     /   | |  | | |  |  |  |  | |\  \  |  | \   \       
                 \___/    |_|  |_| |__|  |__|  |_| \__\ |__|  \__/        
                                                                              
                      - O R C A' S   B I G   F R I E N D -                    
                                      &                                       
                       - I N T E G R A L  F E E D E R -                       
                                                                              
 v1 FN, 2020, v2 2021, v3 2022-2024                                           
------------------------------------------------------------------------------


----------------------
SHARK INTEGRAL PACKAGE
----------------------

Number of atoms                             ...     38
Number of basis functions                   ...   1788
Number of shells                            ...    548
Maximum angular momentum                    ...      4
Integral batch strategy                     ... SHARK/LIBINT Hybrid
RI-J (if used) integral strategy            ... SPLIT-RIJ (Revised 2003 algorithm where possible)
Printlevel                                  ...      1
Contraction scheme used                     ... SEGMENTED contraction
Prescreening option                         ... SCHWARTZ
   Thresh                                   ... 1.000e-10
   Tcut                                     ... 1.000e-11
   Tpresel                                  ... 1.000e-11 
Coulomb Range Separation                    ... NOT USED
Exchange Range Separation                   ... NOT USED
Multipole approximations                    ... NOT USED
Finite Nucleus Model                        ... NOT USED
CABS basis                                  ... NOT available
Auxiliary Coulomb fitting basis             ... NOT available
Auxiliary J/K fitting basis                 ... NOT available
Auxiliary Correlation fitting basis         ... NOT available
Auxiliary 'external' fitting basis          ... NOT available

Checking pre-screening integrals            ... done (  0.0 sec) Dimension = 548
Check shell pair data                       ... done (  0.0 sec)
Shell pair information
Shell pair cut-off parameter TPreSel        ...   1.0e-11
Total number of shell pairs                 ...    150426
Shell pairs after pre-screening             ...     88256
Total number of primitive shell pairs       ...    386901
Primitive shell pairs kept                  ...    157309
          la=0 lb=0:  13381 shell pairs
          la=1 lb=0:  19772 shell pairs
          la=1 lb=1:   6903 shell pairs
          la=2 lb=0:  12114 shell pairs
          la=2 lb=1:   8942 shell pairs
          la=2 lb=2:   2901 shell pairs
          la=3 lb=0:   7268 shell pairs
          la=3 lb=1:   5390 shell pairs
          la=3 lb=2:   3298 shell pairs
          la=3 lb=3:   1010 shell pairs
          la=4 lb=0:   2866 shell pairs
          la=4 lb=1:   2126 shell pairs
          la=4 lb=2:   1330 shell pairs
          la=4 lb=3:    782 shell pairs
          la=4 lb=4:    173 shell pairs

Calculating one electron integrals          ... done (  1.2 sec)
Calculating Nuclear repulsion               ... done (  0.0 sec) ENN=   1785.753181570586 Eh

Diagonalization of the overlap matrix:
Smallest eigenvalue                        ... 1.447e-06
Time for diagonalization                   ...    0.600 sec
Threshold for overlap eigenvalues          ... 1.000e-07
Number of eigenvalues below threshold      ... 0
Time for construction of square roots      ...    0.427 sec
Total time needed                          ...    1.089 sec

-------------------
DFT GRID GENERATION
-------------------

General Integration Accuracy     IntAcc      ... 4.959
Radial Grid Type                 RadialGrid  ... OptM3 with GC (2021)
Angular Grid (max. ang.)         AngularGrid ... 6 (Lebedev-590)
Angular grid pruning method      GridPruning ... 4 (adaptive)
Weight generation scheme         WeightScheme... mBecke (2022)
Basis function cutoff            BFCut       ... 1.0000e-10
Integration weight cutoff        WCut        ... 1.0000e-14
Partially contracted basis set               ... off
Rotationally invariant grid construction     ... off
Angular grids for H and He will be reduced by one unit
Diffuse basis detected: some atoms will have their outermost
                        angular grid increased by 1.

Total number of grid points                  ...   467737
Total number of batches                      ...     7328
Average number of points per batch           ...       63
Average number of grid points per atom       ...    12309
Initializing property integral containers    ... done (  0.0 sec)

SHARK setup successfully completed in   8.7 seconds

Maximum memory used throughout the entire STARTUP-calculation: 187.0 MB


           ************************************************************
           *        Program running with 104 parallel MPI-processes   *
           *              working on a common directory               *
           ************************************************************
-------------------------------------------------------------------------------
                                 ORCA GUESS
                   Start orbitals & Density for SCF / CASSCF
-------------------------------------------------------------------------------

------------
SCF SETTINGS
------------
Hamiltonian:
 Density Functional     Method          .... DFT(GTOs)
 Exchange Functional    Exchange        .... PBE
   PBE kappa parameter   XKappa         ....  0.804000
   PBE mue parameter    XMuePBE         ....  0.219520
 Correlation Functional Correlation     .... P86
 LDA part of GGA corr.  LDAOpt          .... VWN-5
 Gradients option       PostSCFGGA      .... off
 Hybrid DFT is turned on
   Fraction HF Exchange ScalHFX         ....  0.690000
   Scaling of DF-GGA-X  ScalDFX         ....  0.310000
   Scaling of DF-GGA-C  ScalDFC         ....  0.403800
   Scaling of DF-LDA-C  ScalLDAC        ....  0.403800
   Perturbative correction              ....  1.000000


General Settings:
 Integral files         IntName         .... hc_c24h14_0pent_9_qz_nori
 Hartree-Fock type      HFTyp           .... RHF
 Total Charge           Charge          ....    0
 Multiplicity           Mult            ....    1
 Number of Electrons    NEL             ....  158
 Basis Dimension        Dim             .... 1788
 Nuclear Repulsion      ENuc            ....   1785.7531815706 Eh

Convergence Acceleration:
 AO-DIIS                CNVDIIS         .... on
   Start iteration      DIISMaxIt       ....    12
   Startup error        DIISStart       ....  0.200000
   # of expansion vecs  DIISMaxEq       ....     5
   Bias factor          DIISBfac        ....   1.050
   Max. coefficient     DIISMaxC        ....  10.000
 MO-DIIS                CNVKDIIS        .... off
 Trust-Rad. Augm. Hess. CNVTRAH         .... auto
   Auto Start mean grad. ratio tolernc. ....  1.125000
   Auto Start start iteration           ....    50
   Auto Start num. interpolation iter.  ....    10
   Max. Number of Micro iterations      ....    24
   Max. Number of Macro iterations      .... Maxiter - #DIIS iter
   Number of Davidson start vectors     ....     2
   Converg. threshold    (grad. norm)   ....   5.000e-05
   Grad. Scal. Fac. for Micro threshold ....   0.100
   Minimum threshold for Micro iter.    ....   1.000e-02
   NR start threshold (gradient norm)   ....   1.000e-04
   Initial trust radius                 ....   0.400
   Minimum AH scaling param. (alpha)    ....   1.000
   Maximum AH scaling param. (alpha)    .... 1000.000
   Quad. conv. algorithm                .... NR
   White noise on init. David. guess    .... on
   Maximum white noise                  ....   0.010
   Pseudo random numbers                .... off
   Inactive MOs                         .... canonical
   Orbital update algorithm             .... Taylor
   Preconditioner                       .... Diag
   Full preconditioner red. dimension   ....   250
 SOSCF                  CNVSOSCF        .... on
   Start iteration      SOSCFMaxIt      ....   150
   Startup grad/error   SOSCFStart      ....  0.003300
   Hessian update       SOSCFHessUp     .... L-BFGS
 Level Shifting         CNVShift        .... on
   Level shift para.    LevelShift      ....    0.2500
   Turn off err/grad.   ShiftErr        ....    0.0010
 Zerner damping         CNVZerner       .... off
 Static damping         CNVDamp         .... on
   Fraction old density DampFac         ....    0.7000
   Max. Damping (<1)    DampMax         ....    0.9800
   Min. Damping (>=0)   DampMin         ....    0.0000
   Turn off err/grad.   DampErr         ....    0.1000

SCF Procedure:
 Maximum # iterations   MaxIter         ....   125
 SCF integral mode      SCFMode         .... Direct
   Integral package                     .... SHARK and LIBINT hybrid scheme
 Reset frequency        DirectResetFreq ....    20
 Integral Threshold     Thresh          ....  1.000e-10 Eh
 Primitive CutOff       TCut            ....  1.000e-11 Eh

Convergence Tolerance:
 Convergence Check Mode ConvCheckMode   .... Total+1el-Energy
 Convergence forced     ConvForced      .... 0
 Energy Change          TolE            ....  1.000e-06 Eh
 1-El. energy change                    ....  1.000e-03 Eh
 Orbital Gradient       TolG            ....  5.000e-05
 Orbital Rotation angle TolX            ....  5.000e-05
 DIIS Error             TolErr          ....  1.000e-06

------------------------------
INITIAL GUESS: MODEL POTENTIAL
------------------------------
Loading Hartree-Fock densities                     ... done
Calculating cut-offs                               ... done
Initializing the effective Hamiltonian             ... done
Setting up the integral package (SHARK)            ... done
Starting the Coulomb interaction                   ... done (   0.4 sec)
Making the grid                                    ... done (   0.3 sec)
Mapping shells                                     ... done
Starting the XC term evaluation                    ... done (   0.1 sec)
  promolecular density results
     # of electrons  =    157.981098820
     EX              =   -127.045726522
     EC              =      0.200896984
     EX+EC           =   -126.844829537
Transforming the Hamiltonian                       ... done (   0.3 sec)
Diagonalizing the Hamiltonian                      ... done (   0.4 sec)
Back transforming the eigenvectors                 ... done (   0.2 sec)
Now organizing SCF variables                       ... done
                      ------------------
                      INITIAL GUESS DONE (   2.0 sec)
                      ------------------
             **** ENERGY FILE WAS UPDATED (hc_c24h14_0pent_9_qz_nori.en.tmp) ****
Finished Guess after  17.8 sec
Maximum memory used throughout the entire GUESS-calculation: 190.1 MB


           ************************************************************
           *        Program running with 104 parallel MPI-processes   *
           *              working on a common directory               *
           ************************************************************

-------------------------------------------------------------------------------------------
                                      ORCA LEAN-SCF
                              memory conserving SCF solver
-------------------------------------------------------------------------------------------

----------------------------------------D-I-I-S--------------------------------------------
Iteration    Energy (Eh)           Delta-E    RMSDP     MaxDP     DIISErr   Damp  Time(sec)
-------------------------------------------------------------------------------------------
               ***  Starting incremental Fock matrix formation  ***
    1    -919.0435338842410147     0.00e+00  2.62e-04  2.29e-02  1.54e-01  0.700  59.9
    2    -919.2290535893837387    -1.86e-01  2.09e-04  1.91e-02  9.46e-02  0.700  53.7
                               ***Turning on AO-DIIS***
    3    -919.3395443606484605    -1.10e-01  1.46e-04  1.75e-02  5.72e-02  0.700  52.0
    4    -919.4086879189119372    -6.91e-02  3.57e-04  4.37e-02  3.95e-02  0.000  50.1
    5    -919.5599657884242788    -1.51e-01  2.76e-05  2.19e-03  4.28e-03  0.000  53.5
                              *** Initializing SOSCF ***
---------------------------------------S-O-S-C-F--------------------------------------
Iteration    Energy (Eh)           Delta-E    RMSDP     MaxDP     MaxGrad    Time(sec)
--------------------------------------------------------------------------------------
    6    -919.5602891482751602    -3.23e-04  1.48e-05  1.14e-03  1.33e-03    45.7
               *** Restarting incremental Fock matrix formation ***
    7    -919.5603737946910314    -8.46e-05  5.03e-05  4.83e-03  9.51e-04    60.5
    8    -919.5604200870359364    -4.63e-05  2.83e-05  2.43e-03  4.13e-04    42.8
    9    -919.5604305794984157    -1.05e-05  1.92e-05  1.64e-03  2.58e-04    41.7
   10    -919.5604336755056920    -3.10e-06  1.62e-05  1.92e-03  7.42e-05    39.2
   11    -919.5604337303022930    -5.48e-08  1.24e-05  1.37e-03  3.98e-05    38.9
                 **** Energy Check signals convergence ****

               *****************************************************
               *                     SUCCESS                       *
               *           SCF CONVERGED AFTER  11 CYCLES          *
               *****************************************************

             **** ENERGY FILE WAS UPDATED (hc_c24h14_0pent_9_qz_nori.en.tmp) ****

----------------
TOTAL SCF ENERGY
----------------

Total Energy       :       -919.56043373030229 Eh          -25022.51152 eV

Components:
Nuclear Repulsion  :       1785.75318157058587 Eh           48592.81448 eV
Electronic Energy  :      -2705.31361530088816 Eh          -73615.32600 eV
One Electron Energy:      -4791.95001663916446 Eh         -130395.58914 eV
Two Electron Energy:       2086.63640133827630 Eh           56780.26313 eV

Virial components:
Potential Energy   :      -1837.09783121906685 Eh          -49989.97343 eV
Kinetic Energy     :        917.53739748876467 Eh           24967.46191 eV
Virial Ratio       :          2.00220485426215

DFT components:
N(Alpha)           :       79.000014045901 electrons
N(Beta)            :       79.000014045901 electrons
N(Total)           :      158.000028091803 electrons
E(X)               :      -40.062568897442 Eh       
E(C)               :       -2.353922137376 Eh       
E(XC)              :      -42.416491034818 Eh       

---------------
SCF CONVERGENCE
---------------

  Last Energy change         ...    5.4797e-08  Tolerance :   1.0000e-06
  Last MAX-Density change    ...    1.3688e-03  Tolerance :   1.0000e-05
  Last RMS-Density change    ...    1.2414e-05  Tolerance :   1.0000e-06
  Last DIIS Error            ...    1.3335e-03  Tolerance :   1.0000e-06
  Last Orbital Gradient      ...    3.9833e-05  Tolerance :   5.0000e-05
  Last Orbital Rotation      ...    8.5568e-05  Tolerance :   5.0000e-05


----------------
ORBITAL ENERGIES
----------------

  NO   OCC          E(Eh)            E(eV) 
   0   2.0000     -10.836624      -294.8795 
   1   2.0000     -10.836607      -294.8791 
   2   2.0000     -10.834840      -294.8310 
   3   2.0000     -10.834831      -294.8307 
   4   2.0000     -10.834157      -294.8124 
   5   2.0000     -10.833375      -294.7911 
   6   2.0000     -10.831476      -294.7394 
   7   2.0000     -10.831476      -294.7394 
   8   2.0000     -10.831256      -294.7335 
   9   2.0000     -10.831230      -294.7327 
  10   2.0000     -10.824456      -294.5484 
  11   2.0000     -10.824456      -294.5484 
  12   2.0000     -10.823105      -294.5116 
  13   2.0000     -10.823104      -294.5116 
  14   2.0000     -10.823036      -294.5098 
  15   2.0000     -10.823036      -294.5098 
  16   2.0000     -10.822780      -294.5028 
  17   2.0000     -10.822779      -294.5028 
  18   2.0000     -10.822674      -294.4999 
  19   2.0000     -10.822674      -294.4999 
  20   2.0000     -10.821738      -294.4745 
  21   2.0000     -10.821738      -294.4745 
  22   2.0000     -10.820822      -294.4495 
  23   2.0000     -10.820822      -294.4495 
  24   2.0000      -1.097396       -29.8617 
  25   2.0000      -1.070685       -29.1348 
  26   2.0000      -1.044054       -28.4102 
  27   2.0000      -1.024276       -27.8720 
  28   2.0000      -1.000667       -27.2295 
  29   2.0000      -0.971552       -26.4373 
  30   2.0000      -0.947119       -25.7724 
  31   2.0000      -0.938607       -25.5408 
  32   2.0000      -0.922379       -25.0992 
  33   2.0000      -0.903647       -24.5895 
  34   2.0000      -0.896816       -24.4036 
  35   2.0000      -0.859196       -23.3799 
  36   2.0000      -0.802982       -21.8502 
  37   2.0000      -0.785232       -21.3673 
  38   2.0000      -0.778725       -21.1902 
  39   2.0000      -0.760177       -20.6855 
  40   2.0000      -0.741553       -20.1787 
  41   2.0000      -0.737075       -20.0568 
  42   2.0000      -0.698882       -19.0176 
  43   2.0000      -0.662429       -18.0256 
  44   2.0000      -0.662363       -18.0238 
  45   2.0000      -0.643114       -17.5000 
  46   2.0000      -0.638917       -17.3858 
  47   2.0000      -0.609917       -16.5967 
  48   2.0000      -0.593219       -16.1423 
  49   2.0000      -0.590805       -16.0766 
  50   2.0000      -0.583927       -15.8895 
  51   2.0000      -0.564961       -15.3734 
  52   2.0000      -0.551929       -15.0187 
  53   2.0000      -0.544256       -14.8099 
  54   2.0000      -0.543229       -14.7820 
  55   2.0000      -0.530987       -14.4489 
  56   2.0000      -0.521535       -14.1917 
  57   2.0000      -0.518974       -14.1220 
  58   2.0000      -0.510675       -13.8962 
  59   2.0000      -0.500931       -13.6310 
  60   2.0000      -0.497783       -13.5454 
  61   2.0000      -0.489277       -13.3139 
  62   2.0000      -0.488874       -13.3029 
  63   2.0000      -0.484742       -13.1905 
  64   2.0000      -0.454017       -12.3544 
  65   2.0000      -0.453173       -12.3315 
  66   2.0000      -0.450541       -12.2598 
  67   2.0000      -0.434467       -11.8224 
  68   2.0000      -0.430283       -11.7086 
  69   2.0000      -0.422000       -11.4832 
  70   2.0000      -0.404997       -11.0205 
  71   2.0000      -0.399034       -10.8583 
  72   2.0000      -0.372971       -10.1491 
  73   2.0000      -0.335414        -9.1271 
  74   2.0000      -0.333526        -9.0757 
  75   2.0000      -0.316771        -8.6198 
  76   2.0000      -0.286771        -7.8034 
  77   2.0000      -0.272880        -7.4254 
  78   2.0000      -0.219463        -5.9719 
  79   0.0000      -0.018623        -0.5068 
  80   0.0000       0.027107         0.7376 
  81   0.0000       0.036359         0.9894 
  82   0.0000       0.063105         1.7172 
  83   0.0000       0.075270         2.0482 
  84   0.0000       0.078705         2.1417 
  85   0.0000       0.079651         2.1674 
  86   0.0000       0.079826         2.1722 
  87   0.0000       0.086260         2.3473 
  88   0.0000       0.090795         2.4706 
  89   0.0000       0.092064         2.5052 
*Only the first 10 virtual orbitals were printed.
-------
TIMINGS
-------

Total SCF time: 0 days 0 hours 9 min 15 sec 

Total time                  ....     555.045 sec
Sum of individual times     ....     554.990 sec  (100.0%)

SCF preparation             ....      15.264 sec  (  2.8%)
Fock matrix formation       ....     517.524 sec  ( 93.2%)
  Startup                   ....       1.487 sec  (  0.3% of F)
  Coulomb+Exchange Fock     ....     501.482 sec  ( 96.9% of F)
  XC integration            ....      10.989 sec  (  2.1% of F)
    XC Preparation          ....       0.000 sec  (  0.0% of XC)
    Basis function eval.    ....       0.991 sec  (  9.0% of XC)
    Density eval.           ....       1.593 sec  ( 14.5% of XC)
    XC-Functional eval.     ....       0.030 sec  (  0.3% of XC)
    XC-Potential eval.      ....       1.405 sec  ( 12.8% of XC)
Diagonalization             ....       0.000 sec  (  0.0%)
Density matrix formation    ....       3.467 sec  (  0.6%)
Total Energy calculation    ....       1.554 sec  (  0.3%)
Population analysis         ....       0.000 sec  (  0.0%)
Orbital Transformation      ....       2.288 sec  (  0.4%)
Orbital Orthonormalization  ....       0.000 sec  (  0.0%)
DIIS solution               ....      10.183 sec  (  1.8%)
SOSCF solution              ....       4.596 sec  (  0.8%)
Finished LeanSCF after 555.9 sec

Maximum memory used throughout the entire LEANSCF-calculation: 237.6 MB


           ************************************************************
           *        Program running with 104 parallel MPI-processes   *
           *              working on a common directory               *
           ************************************************************

------------------------------------------------------------------------------
                                ORCA  MP2 
------------------------------------------------------------------------------


----------
MP2 ENERGY (disk based algorithm)
----------

Dimension of the basis                      ... 1788
Memory devoted to MP2                       ... 4096 MB   
Data format for buffers                     ... DOUBLE
Compression type for matrix containers      ... UNCOMPRESSED
Scaling for aa/bb pairs                     ...   5.710e-02
Scaling for ab pairs                        ...   5.979e-01
Overall scaling of the MP2 energy           ...   1.000e+00

-------------------------
SHARK HALF TRANSFORMATION (Exchange order)
-------------------------

Number of basis functions                   ...   1788
Number of operators                         ...      1
   Operator  0:    0-  78 (p-index in (p*|q*))
   Operator  0:    0-  78 (q-index in (p*|q*)
Integral generator used                     ... SHARK
Contraction scheme used                     ... SEGMENTED CONTRACTION
MaxCore in resort                           ...   4096 MB

Half transformed integrals for op=   0      ... hc_c24h14_0pent_9_qz_nori.SHARK_MNPQ0.tmp
Resorted half transformed integrals         ... hc_c24h14_0pent_9_qz_nori.KAO_aa.tmp


ORCA finished by error termination in MP2
Calling Command: mpirun -np 104  /apps/orca/6.0.1/orca_mp2_mpi hc_c24h14_0pent_9_qz_nori.mp2inp.tmp hc_c24h14_0pent_9_qz_nori 
[file orca_tools/qcmsg.cpp, line 394]: 
  .... aborting the run

