
                                 *****************
                                 * O   R   C   A *
                                 *****************

                                            #,                                       
                                            ###                                      
                                            ####                                     
                                            #####                                    
                                            ######                                   
                                           ########,                                 
                                     ,,################,,,,,                         
                               ,,#################################,,                 
                          ,,##########################################,,             
                       ,#########################################, ''#####,          
                    ,#############################################,,   '####,        
                  ,##################################################,,,,####,       
                ,###########''''           ''''###############################       
              ,#####''   ,,,,##########,,,,          '''####'''          '####       
            ,##' ,,,,###########################,,,                        '##       
           ' ,,###''''                  '''############,,,                           
         ,,##''                                '''############,,,,        ,,,,,,###''
      ,#''                                            '''#######################'''  
     '                                                          ''''####''''         
             ,#######,   #######,   ,#######,      ##                                
            ,#'     '#,  ##    ##  ,#'     '#,    #''#        ,####,   ,####,        
            ##       ##  ##   ,#'  ##            #'  '#       #'       #'  '#        
            ##       ##  #######   ##           ,######,      #####,   #    #        
            '#,     ,#'  ##    ##  '#,     ,#' ,#      #,     #,   #   #,  ,#        
             '#######'   ##     ##  '#######'  #'      '#     '####' # '####'        



                #########################################################
                #                        -***-                          #
                #          Department of theory and spectroscopy        #
                #                                                       #
                #                      Frank Neese                      #
                #                                                       #
                #     Directorship, Architecture, Infrastructure        #
                #                    SHARK, DRIVERS                     #
                #        Core code/Algorithms in most modules           #
                #                                                       #
                #        Max Planck Institute fuer Kohlenforschung      #
                #                Kaiser Wilhelm Platz 1                 #
                #                 D-45470 Muelheim/Ruhr                 #
                #                      Germany                          #
                #                                                       #
                #                  All rights reserved                  #
                #                        -***-                          #
                #########################################################


                         Program Version 6.0.1  -  RELEASE   -


 With contributions from (in alphabetic order):
[Max-Planck-Institut fuer Kohlenforschung]                               
  Daniel Aravena         : Magnetic Suceptibility                        
  Michael Atanasov       : Ab Initio Ligand Field Theory (pilot matlab implementation)
  Alexander A. Auer      : GIAO ZORA, VPT2 properties, NMR spectrum      
  Ute Becker             : All parallelization in ORCA, NUMFREQ, NUMCALC 
  Giovanni Bistoni       : ED, misc. LED, open-shell LED, HFLD           
  Martin Brehm           : Molecular dynamics                            
  Dmytro Bykov           : pre 5.0 version of the SCF Hessian            
  Marcos Casanova-Páez   : Triplet and SCS-CIS(D). UHF-(DLPNO)-IP/EA/STEOM-CCSD. UHF-CVS-IP/STEOM-CCSD   
  Vijay G. Chilkuri      : MRCI spin determinant printing, contributions to CSF-ICE 
  Pauline Colinet        : FMM embedding                                 
  Dipayan Datta          : RHF DLPNO-CCSD density                        
  Achintya Kumar Dutta   : EOM-CC, STEOM-CC                              
  Nicolas Foglia         : Exact transition moments, OPA infrastructure, MCD improvements    
  Dmitry Ganyushin       : Spin-Orbit,Spin-Spin,Magnetic field MRCI      
  Miquel Garcia-Rates    : C-PCM and meta-GGA Hessian, CCSD/C-PCM, Gaussian charge scheme 
  Tiago L. C. Gouveia    : GS-ROHF, GS-ROCIS                             
  Yang Guo               : DLPNO-NEVPT2, F12-NEVPT2, CIM, IAO-localization        
  Andreas Hansen         : Spin unrestricted coupled pair/coupled cluster methods 
  Ingolf Harden          : AUTO-CI MPn and infrastructure                
  Benjamin Helmich-Paris : MC-RPA, TRAH-(SCF,CASSCF), AVAS, COSX integrals, SCF dyn. polar. 
  Lee Huntington         : MR-EOM, pCC                                   
  Robert Izsak           : Overlap fitted RIJCOSX, COSX-SCS-MP3, EOM     
  Riya Kayal             : Wick's Theorem for AUTO-CI, AUTO-CI UHF-CCSDT 
  Emily Kempfer          : AUTO-CI, RHF CISDT and CCSDT                  
  Christian Kollmar      : KDIIS, OOCD, Brueckner-CCSD(T), CCSD density, CASPT2, CASPT2-K, improved NEVPT2 
  Axel Koslowski         : Symmetry handling                             
  Simone Kossmann        : meta-GGA functionals, TD-DFT gradient, OOMP2, (MP2 Hessian; deprecated post 5.0) 
  Lucas Lang             : DCDCAS                                        
  Marvin Lechner         : AUTO-CI (C++ implementation), FIC-MRCC        
  Spencer Leger          : CASSCF response                               
  Dagmar Lenk            : GEPOL surface, SMD, ORCA-2-JSON               
  Dimitrios Liakos       : Extrapolation schemes; Compound Job, initial MDCI parallelization 
  Dimitrios Manganas     : Further ROCIS development; embedding schemes. LFT, Crystal Embedding 
  Dimitrios Pantazis     : SARC Basis sets                               
  Anastasios Papadopoulos: AUTO-CI, single reference methods and gradients 
  Taras Petrenko         : pre 6.0 DFT Hessian and TD-DFT gradient, (ASA, deprecated), ECA, 1-Electron XAS/XES, NRVS 
  Peter Pinski           : DLPNO-MP2, DLPNO-MP2 Gradient                 
  Christoph Reimann      : Effective Core Potentials                     
  Marius Retegan         : Local ZFS, SOC                                
  Christoph Riplinger    : Optimizer, TS searches, QM/MM, DLPNO-CCSD(T), (RO)-DLPNO pert. Triples 
  Michael Roemelt        : Original ROCIS implementation                 
  Masaaki Saitow         : Open-shell DLPNO-CCSD energy and density      
  Barbara Sandhoefer     : DKH picture change effects                    
  Kantharuban Sivalingam : CASSCF convergence/infrastructure, NEVPT2 and variants, FIC-MRCI 
  Bernardo de Souza      : ESD, SOC TD-DFT                               
  Georgi L. Stoychev     : AutoAux, RI-MP2 NMR, DLPNO-MP2 response, X2C  
  Van Anh Tran           : RI-MP2 g-tensors                              
  Willem Van den Heuvel  : Paramagnetic NMR                              
  Zikuan Wang            : NOTCH, Electric field optimization            
  Frank Wennmohs         : Technical directorship and infrastructure     
  Hang Xu                : AUTO-CI-Response properties                   
                                                                         
[FACCTs GmbH]                                                            
  Markus Bursch, Miquel Garcia-Rates, Christoph Riplinger, Bernardo de Souza, Georgi L. Stoychev 
                                                                 
  APM, Basis sets (HGBS, AHGBS, def-TZVP (Ac-Lr), def2-XVPD (La-Lu)), CI-OPT, improved COSX, DLPNO-Multilevel,           
  DOCKER, DRACO, updates on ESD, GOAT, IRC, LR-CPCM, MBIS, meta-GGA TD-DFT gradient, ML-optimized integration grids, 
  MM, NACMEs, nearIR, NEB, NEB-TS, NL-DFT gradient (VV10), 2- and 3-layer-ONIOM, interface openCOSMO-RS, QMMM,   
  Crystal-QMMM, SF, symmetry and pop. for TD-DFT, r2SCAN hybrids, SOLVATOR                                   
                                                                         
[Other institutions]                                                     
  V. Asgeirsson          : NEB                                           
  Christoph Bannwarth    : sTDA-DFT, sTD-DFT, PBEh-3c, B97-3c, D3        
  Sebastian Ehlert       : rSCAN, r2SCAN, r2SCAN-3c, D4, dhf basis sets  
  Marvin Friede          : D4 for Fr, Ra, Ac-Lr                          
  Lars Goerigk           : TD-DFT with DH, B97 family of functionals     
  Stefan Grimme          : VdW corrections, initial TS optimization, DFT functionals, gCP, sTDA/sTD-DF 
  Waldemar Hujo          : DFT-NL                                        
  H. Jonsson             : NEB                                           
  Holger Kruse           : gCP                                           
  Marcel Mueller         : wB97X-3c, vDZP basis set                      
  Hagen Neugebauer       : wr2SCAN                                       
  Tobias Risthaus        : range-separated hybrid DFT                    
  Lukas Wittmann         : regularized MP2, r2SCAN double-hybrids, wr2SCAN        
                                                                         
We gratefully acknowledge several colleagues who have allowed us to      
interface, adapt or use parts of their codes:                            
  Ed Valeev, F. Pavosevic, A. Kumar             : LibInt (2-el integral package), F12 methods 
  Garnet Chan, S. Sharma, J. Yang, R. Olivares  : DMRG                   
  Ulf Ekstrom                                   : XCFun DFT Library      
  Mihaly Kallay                                 : mrcc  (arbitrary order and MRCC methods)
  Frank Weinhold                                : gennbo (NPA and NBO analysis)           
  Simon Mueller                                 : openCOSMO-RS                            
  Christopher J. Cramer and Donald G. Truhlar   : smd solvation model                     
  S Lehtola, MJT Oliveira, MAL Marques          : LibXC Library                           
  Liviu Ungur et al                             : ANISO software                          


 Your calculation uses the libint2 library for the computation of 2-el integrals
 For citations please refer to: http://libint.valeyev.net

 Your ORCA version has been built with support for libXC version: 6.2.2
 For citations please refer to: https://libxc.gitlab.io

 This ORCA versions uses:
   CBLAS   interface :  Fast vector & matrix operations
   LAPACKE interface :  Fast linear algebra routines
   SCALAPACK package :  Parallel linear algebra routines
   Shared memory     :  Shared parallel matrices
   BLAS/LAPACK       :  OpenBLAS 0.3.27  USE64BITINT DYNAMIC_ARCH NO_AFFINITY SapphireRapids SINGLE_THREADED
        Core in use  :  SapphireRapids
   Copyright (c) 2011-2014, The OpenBLAS Project




***************************************
The coordinates will be read from file: /scratch/kx58/rs2200/dhdft/inputs/compas3x-xyzs/hc_c24h14_0pent_1.xyz
***************************************


Your calculation utilizes the atom-pairwise dispersion correction
based on EEQ partial charges (D4)


================================================================================

----- Orbital basis set information -----
Your calculation utilizes the basis: def2-TZVP
   F. Weigend and R. Ahlrichs, Phys. Chem. Chem. Phys. 7, 3297 (2005).

================================================================================
                                        WARNINGS
                       Please study these warnings very carefully!
================================================================================


WARNING: No MP2 level density has been requested!
         To calculate MP2 level properties use
         %mp2 Density relaxed end
         or
         %mp2 Density unrelaxed end
         Otherwise for double-hybrid DFT only the energy is correct!

================================================================================
                                       INPUT FILE
================================================================================
NAME = hc_c24h14_0pent_1_tz_nori.inp
|  1> ! RKS revDSD-PBEP86-D4/2021 defgrid3  NORI NOPOP NoFrozencore NoUseSym
|  2> 
|  3> %basis
|  4>   Basis "def2-TZVP"
|  5>   
|  6>   
|  7> end
|  8> 
|  9> %method
| 10>   ScalHFX 0.69
| 11>   ScalDFX 0.31
| 12>   ScalDFC 0.4038
| 13>   ScalLDAC 0.4038
| 14> 
| 15>   D4S6 0.4612
| 16>   D4S8 0.0
| 17>   D4A1 0.44
| 18>   D4A2 3.60
| 19> end
| 20> 
| 21> %mp2
| 22>   PS 0.5979
| 23>   PT 0.0571
| 24> end
| 25> 
| 26> %pal
| 27>     nprocs 104
| 28> end
| 29> 
| 30> *XYZFILE 0 1 /scratch/kx58/rs2200/dhdft/inputs/compas3x-xyzs/hc_c24h14_0pent_1.xyz
| 31> 
| 32>                          ****END OF INPUT****
================================================================================

                       ****************************
                       * Single Point Calculation *
                       ****************************

---------------------------------
CARTESIAN COORDINATES (ANGSTROEM)
---------------------------------
  C      1.797600    0.544505    0.134254
  C      0.655153   -0.289472    0.088532
  C     -0.655305    0.289422    0.087789
  C     -0.808216    1.695616    0.132844
  C      0.355055    2.547316   -0.032654
  C      1.643959    1.977934   -0.032017
  C      3.047450   -0.038068    0.337574
  C      3.182122   -1.405820    0.458285
  C      2.080356   -2.227331    0.337080
  C      0.808013   -1.695664    0.133795
  C     -0.355070   -2.547369   -0.032991
  C     -1.643976   -1.977990   -0.033799
  C     -1.797803   -0.544555    0.132255
  C     -3.047882    0.038025    0.334146
  C     -3.182690    1.405782    0.454660
  C     -2.080788    2.227288    0.334675
  C      0.231116    3.929013   -0.228540
  C      1.331931    4.733541   -0.404817
  C      2.602581    4.172209   -0.404237
  C      2.749004    2.816698   -0.227356
  C     -0.230908   -3.929068   -0.228720
  C     -1.331524   -4.733603   -0.406204
  C     -2.602176   -4.172277   -0.407031
  C     -2.748801   -2.816763   -0.230339
  H      3.928635    0.575438    0.431383
  H      4.155898   -1.836021    0.642154
  H      2.220253   -3.291926    0.430535
  H     -3.929172   -0.575477    0.426982
  H     -4.156673    1.835988    0.637413
  H     -2.220792    3.291886    0.427937
  H     -0.745767    4.383599   -0.266685
  H      1.207597    5.795702   -0.556491
  H      3.471634    4.795519   -0.555480
  H      3.742941    2.400632   -0.264559
  H      0.746020   -4.383648   -0.265780
  H     -1.207018   -5.795766   -0.557725
  H     -3.471059   -4.795594   -0.559218
  H     -3.742698   -2.400704   -0.268648

----------------------------
CARTESIAN COORDINATES (A.U.)
----------------------------
  NO LB      ZA    FRAG     MASS         X           Y           Z
   0 C     6.0000    0    12.011    3.396971    1.028965    0.253704
   1 C     6.0000    0    12.011    1.238059   -0.547022    0.167300
   2 C     6.0000    0    12.011   -1.238348    0.546927    0.165898
   3 C     6.0000    0    12.011   -1.527307    3.204250    0.251038
   4 C     6.0000    0    12.011    0.670956    4.813730   -0.061708
   5 C     6.0000    0    12.011    3.106633    3.737754   -0.060503
   6 C     6.0000    0    12.011    5.758846   -0.071938    0.637923
   7 C     6.0000    0    12.011    6.013338   -2.656615    0.866034
   8 C     6.0000    0    12.011    3.931303   -4.209045    0.636990
   9 C     6.0000    0    12.011    1.526924   -3.204341    0.252836
  10 C     6.0000    0    12.011   -0.670985   -4.813829   -0.062343
  11 C     6.0000    0    12.011   -3.106664   -3.737859   -0.063872
  12 C     6.0000    0    12.011   -3.397355   -1.029059    0.249925
  13 C     6.0000    0    12.011   -5.759662    0.071857    0.631445
  14 C     6.0000    0    12.011   -6.014412    2.656542    0.859182
  15 C     6.0000    0    12.011   -3.932120    4.208965    0.632444
  16 C     6.0000    0    12.011    0.436745    7.424759   -0.431879
  17 C     6.0000    0    12.011    2.516986    8.945096   -0.764994
  18 C     6.0000    0    12.011    4.918166    7.884333   -0.763897
  19 C     6.0000    0    12.011    5.194866    5.322787   -0.429640
  20 C     6.0000    0    12.011   -0.436352   -7.424862   -0.432218
  21 C     6.0000    0    12.011   -2.516216   -8.945213   -0.767614
  22 C     6.0000    0    12.011   -4.917401   -7.884461   -0.769177
  23 C     6.0000    0    12.011   -5.194481   -5.322910   -0.435277
  24 H     1.0000    0     1.008    7.424044    1.087420    0.815195
  25 H     1.0000    0     1.008    7.853508   -3.469577    1.213494
  26 H     1.0000    0     1.008    4.195670   -6.220838    0.813593
  27 H     1.0000    0     1.008   -7.425059   -1.087494    0.806878
  28 H     1.0000    0     1.008   -7.854974    3.469515    1.204536
  29 H     1.0000    0     1.008   -4.196688    6.220763    0.808684
  30 H     1.0000    0     1.008   -1.409296    8.283802   -0.503962
  31 H     1.0000    0     1.008    2.282028   10.952290   -1.051616
  32 H     1.0000    0     1.008    6.560437    9.062218   -1.049705
  33 H     1.0000    0     1.008    7.073133    4.536536   -0.499945
  34 H     1.0000    0     1.008    1.409773   -8.283894   -0.502251
  35 H     1.0000    0     1.008   -2.280933  -10.952410   -1.053947
  36 H     1.0000    0     1.008   -6.559350   -9.062359   -1.056770
  37 H     1.0000    0     1.008   -7.072674   -4.536672   -0.507671

--------------------------------
INTERNAL COORDINATES (ANGSTROEM)
--------------------------------
 C      0   0   0     0.000000000000     0.00000000     0.00000000
 C      1   0   0     1.415200702073     0.00000000     0.00000000
 C      2   1   0     1.432626302058   120.02130500     0.00000000
 C      3   2   1     1.415201139192   120.02149535     0.00000000
 C      4   3   2     1.451200094487   119.53247804     9.66849795
 C      5   4   3     1.409067263596   119.73755650   350.36360517
 C      1   2   3     1.393863699139   118.83402272   170.40645490
 C      7   1   2     1.379657266730   120.97329619     1.67642287
 C      8   7   1     1.379658251174   120.30939808     2.04924126
 C      9   8   7     1.393861633182   120.97385540   357.94854071
 C     10   9   8     1.451199790392   121.63390998   178.24880634
 C     11  10   9     1.409067282498   119.73755951   170.44229048
 C      3   2   1     1.415201114130   120.02127227   184.21808123
 C     13   3   2     1.393863807256   118.83399093   170.40701582
 C     14  13   3     1.379657407215   120.97331337     1.67632208
 C     15  14  13     1.379658238957   120.30941919     2.04893808
 C      5   4   3     1.401006631116   121.59002582   168.72382362
 C     17   5   4     1.374821151756   121.61545687   180.96197284
 C     18  17   5     1.389116545988   119.72840809     0.66986119
 C     19  18  17     1.374823108805   119.72848169     0.00000000
 C     11  10   9     1.401006510500   121.58993913   348.80250989
 C     21  11  10     1.374821080073   121.61543327   180.96138853
 C     22  21  11     1.389116467937   119.72838010     0.66954834
 C     23  22  21     1.374823157227   119.72851620     0.00000000
 H      7   1   2     1.077810638106   120.52322846   183.38649375
 H      8   7   1     1.080333352039   119.84468911   181.64855362
 H      9   8   7     1.077806605680   118.48149938   179.62810660
 H     14  13   3     1.077810591605   120.52327140   183.38634189
 H     15  14  13     1.080333394330   119.84468202   181.64837379
 H     16  15  14     1.077806623404   118.48143633   179.62819306
 H     17   5   4     1.078148171800   120.06131975   359.54513158
 H     18  17   5     1.080116431258   120.08568220   179.84065518
 H     19  18  17     1.080111611893   120.18049301   179.16854389
 H     20  19  18     1.078148405354   118.30935848   177.93973664
 H     21  11  10     1.078148065349   120.06125593   359.54441391
 H     22  21  11     1.080116052314   120.08570950   179.84069112
 H     23  22  21     1.080111524665   120.18048424   179.16905159
 H     24  23  22     1.078148407785   118.30926980   177.93941951

---------------------------
INTERNAL COORDINATES (A.U.)
---------------------------
 C      0   0   0     0.000000000000     0.00000000     0.00000000
 C      1   0   0     2.674341751452     0.00000000     0.00000000
 C      2   1   0     2.707271363141   120.02130500     0.00000000
 C      3   2   1     2.674342577486   120.02149535     0.00000000
 C      4   3   2     2.742370744100   119.53247804     9.66849795
 C      5   4   3     2.662751232470   119.73755650   350.36360517
 C      1   2   3     2.634020659388   118.83402272   170.40645490
 C      7   1   2     2.607174392794   120.97329619     1.67642287
 C      8   7   1     2.607176253123   120.30939808     2.04924126
 C      9   8   7     2.634016755294   120.97385540   357.94854071
 C     10   9   8     2.742370169444   121.63390998   178.24880634
 C     11  10   9     2.662751268191   119.73755951   170.44229048
 C      3   2   1     2.674342530126   120.02127227   184.21808123
 C     13   3   2     2.634020863699   118.83399093   170.40701582
 C     14  13   3     2.607174658272   120.97331337     1.67632208
 C     15  14  13     2.607176230036   120.30941919     2.04893808
 C      5   4   3     2.647518844616   121.59002582   168.72382362
 C     17   5   4     2.598035459941   121.61545687   180.96197284
 C     18  17   5     2.625049840016   119.72840809     0.66986119
 C     19  18  17     2.598039158227   119.72848169     0.00000000
 C     11  10   9     2.647518616685   121.58993913   348.80250989
 C     21  11  10     2.598035324480   121.61543327   180.96138853
 C     22  21  11     2.625049692521   119.72838010     0.66954834
 C     23  22  21     2.598039249731   119.72851620     0.00000000
 H      7   1   2     2.036766930247   120.52322846   183.38649375
 H      8   7   1     2.041534168695   119.84468911   181.64855362
 H      9   8   7     2.036759310067   118.48149938   179.62810660
 H     14  13   3     2.036766842373   120.52327140   183.38634189
 H     15  14  13     2.041534248614   119.84468202   181.64837379
 H     16  15  14     2.036759343561   118.48143633   179.62819306
 H     17   5   4     2.037404776490   120.06131975   359.54513158
 H     18  17   5     2.041124247825   120.08568220   179.84065518
 H     19  18  17     2.041115140546   120.18049301   179.16854389
 H     20  19  18     2.037405217843   118.30935848   177.93973664
 H     21  11  10     2.037404575326   120.06125593   359.54441391
 H     22  21  11     2.041123531727   120.08570950   179.84069112
 H     23  22  21     2.041114975709   120.18048424   179.16905159
 H     24  23  22     2.037405222438   118.30926980   177.93941951

---------------------
BASIS SET INFORMATION
---------------------
There are 2 groups of distinct atoms

 Group   1 Type C   : 11s6p2d1f contracted to 5s3p2d1f pattern {62111/411/11/1}
 Group   2 Type H   : 5s1p contracted to 3s1p pattern {311/1}

Atom   0C    basis set group =>   1
Atom   1C    basis set group =>   1
Atom   2C    basis set group =>   1
Atom   3C    basis set group =>   1
Atom   4C    basis set group =>   1
Atom   5C    basis set group =>   1
Atom   6C    basis set group =>   1
Atom   7C    basis set group =>   1
Atom   8C    basis set group =>   1
Atom   9C    basis set group =>   1
Atom  10C    basis set group =>   1
Atom  11C    basis set group =>   1
Atom  12C    basis set group =>   1
Atom  13C    basis set group =>   1
Atom  14C    basis set group =>   1
Atom  15C    basis set group =>   1
Atom  16C    basis set group =>   1
Atom  17C    basis set group =>   1
Atom  18C    basis set group =>   1
Atom  19C    basis set group =>   1
Atom  20C    basis set group =>   1
Atom  21C    basis set group =>   1
Atom  22C    basis set group =>   1
Atom  23C    basis set group =>   1
Atom  24H    basis set group =>   2
Atom  25H    basis set group =>   2
Atom  26H    basis set group =>   2
Atom  27H    basis set group =>   2
Atom  28H    basis set group =>   2
Atom  29H    basis set group =>   2
Atom  30H    basis set group =>   2
Atom  31H    basis set group =>   2
Atom  32H    basis set group =>   2
Atom  33H    basis set group =>   2
Atom  34H    basis set group =>   2
Atom  35H    basis set group =>   2
Atom  36H    basis set group =>   2
Atom  37H    basis set group =>   2


           ************************************************************
           *        Program running with 104 parallel MPI-processes   *
           *              working on a common directory               *
           ************************************************************
------------------------------------------------------------------------------
                             ORCA STARTUP CALCULATIONS
------------------------------------------------------------------------------
------------------------------------------------------------------------------
                   ___                                                        
                  /   \      - P O W E R E D   B Y -                         
                 /     \                                                     
                 |  |  |   _    _      __       _____    __    __             
                 |  |  |  | |  | |    /  \     |  _  \  |  |  /  |          
                  \  \/   | |  | |   /    \    | | | |  |  | /  /          
                 / \  \   | |__| |  /  /\  \   | |_| |  |  |/  /          
                |  |  |   |  __  | /  /__\  \  |    /   |      \           
                |  |  |   | |  | | |   __   |  |    \   |  |\   \          
                \     /   | |  | | |  |  |  |  | |\  \  |  | \   \       
                 \___/    |_|  |_| |__|  |__|  |_| \__\ |__|  \__/        
                                                                              
                      - O R C A' S   B I G   F R I E N D -                    
                                      &                                       
                       - I N T E G R A L  F E E D E R -                       
                                                                              
 v1 FN, 2020, v2 2021, v3 2022-2024                                           
------------------------------------------------------------------------------


----------------------
SHARK INTEGRAL PACKAGE
----------------------

Number of atoms                             ...     38
Number of basis functions                   ...    828
Number of shells                            ...    320
Maximum angular momentum                    ...      3
Integral batch strategy                     ... SHARK/LIBINT Hybrid
RI-J (if used) integral strategy            ... SPLIT-RIJ (Revised 2003 algorithm where possible)
Printlevel                                  ...      1
Contraction scheme used                     ... SEGMENTED contraction
Prescreening option                         ... SCHWARTZ
   Thresh                                   ... 1.000e-10
   Tcut                                     ... 1.000e-11
   Tpresel                                  ... 1.000e-11 
Coulomb Range Separation                    ... NOT USED
Exchange Range Separation                   ... NOT USED
Multipole approximations                    ... NOT USED
Finite Nucleus Model                        ... NOT USED
CABS basis                                  ... NOT available
Auxiliary Coulomb fitting basis             ... NOT available
Auxiliary J/K fitting basis                 ... NOT available
Auxiliary Correlation fitting basis         ... NOT available
Auxiliary 'external' fitting basis          ... NOT available

Checking pre-screening integrals            ... done (  0.0 sec) Dimension = 320
Check shell pair data                       ... done (  0.0 sec)
Shell pair information
Shell pair cut-off parameter TPreSel        ...   1.0e-11
Total number of shell pairs                 ...     51360
Shell pairs after pre-screening             ...     36972
Total number of primitive shell pairs       ...    159900
Primitive shell pairs kept                  ...     76745
          la=0 lb=0:   8931 shell pairs
          la=1 lb=0:  10444 shell pairs
          la=1 lb=1:   3031 shell pairs
          la=2 lb=0:   5470 shell pairs
          la=2 lb=1:   3182 shell pairs
          la=2 lb=2:    875 shell pairs
          la=3 lb=0:   2522 shell pairs
          la=3 lb=1:   1512 shell pairs
          la=3 lb=2:    804 shell pairs
          la=3 lb=3:    201 shell pairs

Calculating one electron integrals          ... done (  0.1 sec)
Calculating Nuclear repulsion               ... done (  0.0 sec) ENN=   1827.308642006096 Eh

Diagonalization of the overlap matrix:
Smallest eigenvalue                        ... 2.062e-06
Time for diagonalization                   ...    0.110 sec
Threshold for overlap eigenvalues          ... 1.000e-07
Number of eigenvalues below threshold      ... 0
Time for construction of square roots      ...    0.051 sec
Total time needed                          ...    0.189 sec

-------------------
DFT GRID GENERATION
-------------------

General Integration Accuracy     IntAcc      ... 4.959
Radial Grid Type                 RadialGrid  ... OptM3 with GC (2021)
Angular Grid (max. ang.)         AngularGrid ... 6 (Lebedev-590)
Angular grid pruning method      GridPruning ... 4 (adaptive)
Weight generation scheme         WeightScheme... mBecke (2022)
Basis function cutoff            BFCut       ... 1.0000e-10
Integration weight cutoff        WCut        ... 1.0000e-14
Partially contracted basis set               ... off
Rotationally invariant grid construction     ... off
Angular grids for H and He will be reduced by one unit

Total number of grid points                  ...   457163
Total number of batches                      ...     7164
Average number of points per batch           ...       63
Average number of grid points per atom       ...    12031
Initializing property integral containers    ... done (  0.0 sec)

SHARK setup successfully completed in   5.1 seconds

Maximum memory used throughout the entire STARTUP-calculation: 117.0 MB


           ************************************************************
           *        Program running with 104 parallel MPI-processes   *
           *              working on a common directory               *
           ************************************************************
-------------------------------------------------------------------------------
                                 ORCA GUESS
                   Start orbitals & Density for SCF / CASSCF
-------------------------------------------------------------------------------

------------
SCF SETTINGS
------------
Hamiltonian:
 Density Functional     Method          .... DFT(GTOs)
 Exchange Functional    Exchange        .... PBE
   PBE kappa parameter   XKappa         ....  0.804000
   PBE mue parameter    XMuePBE         ....  0.219520
 Correlation Functional Correlation     .... P86
 LDA part of GGA corr.  LDAOpt          .... VWN-5
 Gradients option       PostSCFGGA      .... off
 Hybrid DFT is turned on
   Fraction HF Exchange ScalHFX         ....  0.690000
   Scaling of DF-GGA-X  ScalDFX         ....  0.310000
   Scaling of DF-GGA-C  ScalDFC         ....  0.403800
   Scaling of DF-LDA-C  ScalLDAC        ....  0.403800
   Perturbative correction              ....  1.000000


General Settings:
 Integral files         IntName         .... hc_c24h14_0pent_1_tz_nori
 Hartree-Fock type      HFTyp           .... RHF
 Total Charge           Charge          ....    0
 Multiplicity           Mult            ....    1
 Number of Electrons    NEL             ....  158
 Basis Dimension        Dim             ....  828
 Nuclear Repulsion      ENuc            ....   1827.3086420061 Eh

Convergence Acceleration:
 AO-DIIS                CNVDIIS         .... on
   Start iteration      DIISMaxIt       ....    12
   Startup error        DIISStart       ....  0.200000
   # of expansion vecs  DIISMaxEq       ....     5
   Bias factor          DIISBfac        ....   1.050
   Max. coefficient     DIISMaxC        ....  10.000
 MO-DIIS                CNVKDIIS        .... off
 Trust-Rad. Augm. Hess. CNVTRAH         .... auto
   Auto Start mean grad. ratio tolernc. ....  1.125000
   Auto Start start iteration           ....    50
   Auto Start num. interpolation iter.  ....    10
   Max. Number of Micro iterations      ....    24
   Max. Number of Macro iterations      .... Maxiter - #DIIS iter
   Number of Davidson start vectors     ....     2
   Converg. threshold    (grad. norm)   ....   5.000e-05
   Grad. Scal. Fac. for Micro threshold ....   0.100
   Minimum threshold for Micro iter.    ....   1.000e-02
   NR start threshold (gradient norm)   ....   1.000e-04
   Initial trust radius                 ....   0.400
   Minimum AH scaling param. (alpha)    ....   1.000
   Maximum AH scaling param. (alpha)    .... 1000.000
   Quad. conv. algorithm                .... NR
   White noise on init. David. guess    .... on
   Maximum white noise                  ....   0.010
   Pseudo random numbers                .... off
   Inactive MOs                         .... canonical
   Orbital update algorithm             .... Taylor
   Preconditioner                       .... Diag
   Full preconditioner red. dimension   ....   250
 SOSCF                  CNVSOSCF        .... on
   Start iteration      SOSCFMaxIt      ....   150
   Startup grad/error   SOSCFStart      ....  0.003300
   Hessian update       SOSCFHessUp     .... L-BFGS
 Level Shifting         CNVShift        .... on
   Level shift para.    LevelShift      ....    0.2500
   Turn off err/grad.   ShiftErr        ....    0.0010
 Zerner damping         CNVZerner       .... off
 Static damping         CNVDamp         .... on
   Fraction old density DampFac         ....    0.7000
   Max. Damping (<1)    DampMax         ....    0.9800
   Min. Damping (>=0)   DampMin         ....    0.0000
   Turn off err/grad.   DampErr         ....    0.1000

SCF Procedure:
 Maximum # iterations   MaxIter         ....   125
 SCF integral mode      SCFMode         .... Direct
   Integral package                     .... SHARK and LIBINT hybrid scheme
 Reset frequency        DirectResetFreq ....    20
 Integral Threshold     Thresh          ....  1.000e-10 Eh
 Primitive CutOff       TCut            ....  1.000e-11 Eh

Convergence Tolerance:
 Convergence Check Mode ConvCheckMode   .... Total+1el-Energy
 Convergence forced     ConvForced      .... 0
 Energy Change          TolE            ....  1.000e-06 Eh
 1-El. energy change                    ....  1.000e-03 Eh
 Orbital Gradient       TolG            ....  5.000e-05
 Orbital Rotation angle TolX            ....  5.000e-05
 DIIS Error             TolErr          ....  1.000e-06

------------------------------
INITIAL GUESS: MODEL POTENTIAL
------------------------------
Loading Hartree-Fock densities                     ... done
Calculating cut-offs                               ... done
Initializing the effective Hamiltonian             ... done
Setting up the integral package (SHARK)            ... done
Starting the Coulomb interaction                   ... done (   0.1 sec)
Making the grid                                    ... done (   0.3 sec)
Mapping shells                                     ... done
Starting the XC term evaluation                    ... done (   0.1 sec)
  promolecular density results
     # of electrons  =    157.990190394
     EX              =   -127.054805626
     EC              =      0.196372020
     EX+EC           =   -126.858433607
Transforming the Hamiltonian                       ... done (   0.1 sec)
Diagonalizing the Hamiltonian                      ... done (   0.1 sec)
Back transforming the eigenvectors                 ... done (   0.0 sec)
Now organizing SCF variables                       ... done
                      ------------------
                      INITIAL GUESS DONE (   0.9 sec)
                      ------------------
             **** ENERGY FILE WAS UPDATED (hc_c24h14_0pent_1_tz_nori.en.tmp) ****
Finished Guess after  15.9 sec
Maximum memory used throughout the entire GUESS-calculation: 64.7 MB


           ************************************************************
           *        Program running with 104 parallel MPI-processes   *
           *              working on a common directory               *
           ************************************************************

-------------------------------------------------------------------------------------------
                                      ORCA LEAN-SCF
                              memory conserving SCF solver
-------------------------------------------------------------------------------------------

----------------------------------------D-I-I-S--------------------------------------------
Iteration    Energy (Eh)           Delta-E    RMSDP     MaxDP     DIISErr   Damp  Time(sec)
-------------------------------------------------------------------------------------------
               ***  Starting incremental Fock matrix formation  ***
    1    -919.0209700439813787     0.00e+00  2.09e-03  2.08e-01  1.47e-01  0.700  15.8
    2    -919.2050216037055179    -1.84e-01  2.22e-03  2.24e-01  9.18e-02  0.700   7.3
                               ***Turning on AO-DIIS***
    3    -919.3133451392491224    -1.08e-01  6.40e-04  2.45e-02  5.25e-02  0.700   6.8
    4    -919.3808731856547638    -6.75e-02  1.57e-03  1.20e-01  3.58e-02  0.000   6.5
    5    -919.5278124126839430    -1.47e-01  4.52e-04  5.24e-02  3.38e-03  0.000   6.9
                              *** Initializing SOSCF ***
---------------------------------------S-O-S-C-F--------------------------------------
Iteration    Energy (Eh)           Delta-E    RMSDP     MaxDP     MaxGrad    Time(sec)
--------------------------------------------------------------------------------------
    6    -919.5280690089639393    -2.57e-04  8.05e-05  5.58e-03  9.04e-04     6.6
               *** Restarting incremental Fock matrix formation ***
    7    -919.5281171615874882    -4.82e-05  2.08e-04  2.16e-02  8.12e-04     7.2
    8    -919.5281308031198932    -1.36e-05  1.08e-04  7.83e-03  6.05e-04     5.6
    9    -919.5281394123007885    -8.61e-06  8.26e-05  6.75e-03  8.44e-05     5.5
   10    -919.5281398128026922    -4.01e-07  5.72e-05  2.85e-03  1.58e-05     5.3
                 **** Energy Check signals convergence ****

               *****************************************************
               *                     SUCCESS                       *
               *           SCF CONVERGED AFTER  10 CYCLES          *
               *****************************************************

             **** ENERGY FILE WAS UPDATED (hc_c24h14_0pent_1_tz_nori.en.tmp) ****

----------------
TOTAL SCF ENERGY
----------------

Total Energy       :       -919.52813981280269 Eh          -25021.63276 eV

Components:
Nuclear Repulsion  :       1827.30864200609631 Eh           49723.59605 eV
Electronic Energy  :      -2746.83678181889900 Eh          -74745.22881 eV
One Electron Energy:      -4875.18530934057162 Eh         -132660.53660 eV
Two Electron Energy:       2128.34852752167262 Eh           57915.30779 eV

Virial components:
Potential Energy   :      -1837.10583676601709 Eh          -49990.19127 eV
Kinetic Energy     :        917.57769695321451 Eh           24968.55851 eV
Virial Ratio       :          2.00212564327366

DFT components:
N(Alpha)           :       79.000001452669 electrons
N(Beta)            :       79.000001452669 electrons
N(Total)           :      158.000002905338 electrons
E(X)               :      -40.069386536031 Eh       
E(C)               :       -2.357043419427 Eh       
E(XC)              :      -42.426429955457 Eh       

---------------
SCF CONVERGENCE
---------------

  Last Energy change         ...    4.0050e-07  Tolerance :   1.0000e-06
  Last MAX-Density change    ...    2.8475e-03  Tolerance :   1.0000e-05
  Last RMS-Density change    ...    5.7231e-05  Tolerance :   1.0000e-06
  Last DIIS Error            ...    9.0362e-04  Tolerance :   1.0000e-06
  Last Orbital Gradient      ...    1.5814e-05  Tolerance :   5.0000e-05
  Last Orbital Rotation      ...    5.6170e-05  Tolerance :   5.0000e-05


----------------
ORBITAL ENERGIES
----------------

  NO   OCC          E(Eh)            E(eV) 
   0   2.0000     -10.834034      -294.8090 
   1   2.0000     -10.833842      -294.8038 
   2   2.0000     -10.833661      -294.7989 
   3   2.0000     -10.833584      -294.7968 
   4   2.0000     -10.833058      -294.7825 
   5   2.0000     -10.832808      -294.7757 
   6   2.0000     -10.832580      -294.7695 
   7   2.0000     -10.832245      -294.7604 
   8   2.0000     -10.831993      -294.7535 
   9   2.0000     -10.831925      -294.7517 
  10   2.0000     -10.820360      -294.4370 
  11   2.0000     -10.820358      -294.4369 
  12   2.0000     -10.820170      -294.4318 
  13   2.0000     -10.820170      -294.4318 
  14   2.0000     -10.820112      -294.4302 
  15   2.0000     -10.820109      -294.4301 
  16   2.0000     -10.819232      -294.4063 
  17   2.0000     -10.819232      -294.4063 
  18   2.0000     -10.819006      -294.4001 
  19   2.0000     -10.819005      -294.4001 
  20   2.0000     -10.818495      -294.3862 
  21   2.0000     -10.818494      -294.3862 
  22   2.0000     -10.818443      -294.3848 
  23   2.0000     -10.818443      -294.3848 
  24   2.0000      -1.097944       -29.8766 
  25   2.0000      -1.064137       -28.9566 
  26   2.0000      -1.046071       -28.4650 
  27   2.0000      -1.035427       -28.1754 
  28   2.0000      -0.977033       -26.5864 
  29   2.0000      -0.972257       -26.4565 
  30   2.0000      -0.965411       -26.2702 
  31   2.0000      -0.931883       -25.3578 
  32   2.0000      -0.915286       -24.9062 
  33   2.0000      -0.893095       -24.3024 
  34   2.0000      -0.888434       -24.1755 
  35   2.0000      -0.877842       -23.8873 
  36   2.0000      -0.797489       -21.7008 
  37   2.0000      -0.778246       -21.1771 
  38   2.0000      -0.777252       -21.1501 
  39   2.0000      -0.770920       -20.9778 
  40   2.0000      -0.750365       -20.4185 
  41   2.0000      -0.709772       -19.3139 
  42   2.0000      -0.693456       -18.8699 
  43   2.0000      -0.686913       -18.6918 
  44   2.0000      -0.673934       -18.3387 
  45   2.0000      -0.625952       -17.0330 
  46   2.0000      -0.616291       -16.7701 
  47   2.0000      -0.615888       -16.7592 
  48   2.0000      -0.615658       -16.7529 
  49   2.0000      -0.588278       -16.0078 
  50   2.0000      -0.563906       -15.3447 
  51   2.0000      -0.562254       -15.2997 
  52   2.0000      -0.561428       -15.2772 
  53   2.0000      -0.542435       -14.7604 
  54   2.0000      -0.536555       -14.6004 
  55   2.0000      -0.531547       -14.4641 
  56   2.0000      -0.524443       -14.2708 
  57   2.0000      -0.524321       -14.2675 
  58   2.0000      -0.521888       -14.2013 
  59   2.0000      -0.521539       -14.1918 
  60   2.0000      -0.481925       -13.1139 
  61   2.0000      -0.479694       -13.0531 
  62   2.0000      -0.471065       -12.8183 
  63   2.0000      -0.466853       -12.7037 
  64   2.0000      -0.461897       -12.5688 
  65   2.0000      -0.457277       -12.4431 
  66   2.0000      -0.455630       -12.3983 
  67   2.0000      -0.444220       -12.0878 
  68   2.0000      -0.436625       -11.8812 
  69   2.0000      -0.410895       -11.1810 
  70   2.0000      -0.408387       -11.1128 
  71   2.0000      -0.371324       -10.1043 
  72   2.0000      -0.364455        -9.9173 
  73   2.0000      -0.362587        -9.8665 
  74   2.0000      -0.326364        -8.8808 
  75   2.0000      -0.303026        -8.2457 
  76   2.0000      -0.283563        -7.7162 
  77   2.0000      -0.263500        -7.1702 
  78   2.0000      -0.249538        -6.7903 
  79   0.0000       0.011891         0.3236 
  80   0.0000       0.025969         0.7066 
  81   0.0000       0.028544         0.7767 
  82   0.0000       0.057446         1.5632 
  83   0.0000       0.068891         1.8746 
  84   0.0000       0.114336         3.1112 
  85   0.0000       0.114687         3.1208 
  86   0.0000       0.117273         3.1912 
  87   0.0000       0.130279         3.5451 
  88   0.0000       0.130709         3.5568 
  89   0.0000       0.131029         3.5655 
*Only the first 10 virtual orbitals were printed.
-------
TIMINGS
-------

Total SCF time: 0 days 0 hours 1 min 28 sec 

Total time                  ....      88.807 sec
Sum of individual times     ....      88.523 sec  ( 99.7%)

SCF preparation             ....      14.627 sec  ( 16.5%)
Fock matrix formation       ....      65.716 sec  ( 74.0%)
  Startup                   ....       0.953 sec  (  1.5% of F)
  Coulomb+Exchange Fock     ....      49.777 sec  ( 75.7% of F)
  XC integration            ....      12.865 sec  ( 19.6% of F)
    XC Preparation          ....       0.000 sec  (  0.0% of XC)
    Basis function eval.    ....       0.420 sec  (  3.3% of XC)
    Density eval.           ....       0.472 sec  (  3.7% of XC)
    XC-Functional eval.     ....       0.030 sec  (  0.2% of XC)
    XC-Potential eval.      ....       0.409 sec  (  3.2% of XC)
Diagonalization             ....       0.000 sec  (  0.0%)
Density matrix formation    ....       1.428 sec  (  1.6%)
Total Energy calculation    ....       0.980 sec  (  1.1%)
Population analysis         ....       0.000 sec  (  0.0%)
Orbital Transformation      ....       0.732 sec  (  0.8%)
Orbital Orthonormalization  ....       0.000 sec  (  0.0%)
DIIS solution               ....       3.498 sec  (  3.9%)
SOSCF solution              ....       1.473 sec  (  1.7%)
Finished LeanSCF after  89.2 sec

Maximum memory used throughout the entire LEANSCF-calculation: 122.1 MB


           ************************************************************
           *        Program running with 104 parallel MPI-processes   *
           *              working on a common directory               *
           ************************************************************

------------------------------------------------------------------------------
                                ORCA  MP2 
------------------------------------------------------------------------------


----------
MP2 ENERGY (disk based algorithm)
----------

Dimension of the basis                      ...  828
Memory devoted to MP2                       ... 4096 MB   
Data format for buffers                     ... DOUBLE
Compression type for matrix containers      ... UNCOMPRESSED
Scaling for aa/bb pairs                     ...   5.710e-02
Scaling for ab pairs                        ...   5.979e-01
Overall scaling of the MP2 energy           ...   1.000e+00

-------------------------
SHARK HALF TRANSFORMATION (Exchange order)
-------------------------

Number of basis functions                   ...    828
Number of operators                         ...      1
   Operator  0:    0-  78 (p-index in (p*|q*))
   Operator  0:    0-  78 (q-index in (p*|q*)
Integral generator used                     ... SHARK
Contraction scheme used                     ... SEGMENTED CONTRACTION
MaxCore in resort                           ...   4096 MB

Half transformed integrals for op=   0      ... hc_c24h14_0pent_1_tz_nori.SHARK_MNPQ0.tmp
Resorted half transformed integrals         ... hc_c24h14_0pent_1_tz_nori.KAO_aa.tmp


ORCA finished by error termination in MP2
Calling Command: mpirun -np 104  /apps/orca/6.0.1/orca_mp2_mpi hc_c24h14_0pent_1_tz_nori.mp2inp.tmp hc_c24h14_0pent_1_tz_nori 
[file orca_tools/qcmsg.cpp, line 394]: 
  .... aborting the run

