
                                 *****************
                                 * O   R   C   A *
                                 *****************

                                            #,                                       
                                            ###                                      
                                            ####                                     
                                            #####                                    
                                            ######                                   
                                           ########,                                 
                                     ,,################,,,,,                         
                               ,,#################################,,                 
                          ,,##########################################,,             
                       ,#########################################, ''#####,          
                    ,#############################################,,   '####,        
                  ,##################################################,,,,####,       
                ,###########''''           ''''###############################       
              ,#####''   ,,,,##########,,,,          '''####'''          '####       
            ,##' ,,,,###########################,,,                        '##       
           ' ,,###''''                  '''############,,,                           
         ,,##''                                '''############,,,,        ,,,,,,###''
      ,#''                                            '''#######################'''  
     '                                                          ''''####''''         
             ,#######,   #######,   ,#######,      ##                                
            ,#'     '#,  ##    ##  ,#'     '#,    #''#        ,####,   ,####,        
            ##       ##  ##   ,#'  ##            #'  '#       #'       #'  '#        
            ##       ##  #######   ##           ,######,      #####,   #    #        
            '#,     ,#'  ##    ##  '#,     ,#' ,#      #,     #,   #   #,  ,#        
             '#######'   ##     ##  '#######'  #'      '#     '####' # '####'        



                #########################################################
                #                        -***-                          #
                #          Department of theory and spectroscopy        #
                #                                                       #
                #                      Frank Neese                      #
                #                                                       #
                #     Directorship, Architecture, Infrastructure        #
                #                    SHARK, DRIVERS                     #
                #        Core code/Algorithms in most modules           #
                #                                                       #
                #        Max Planck Institute fuer Kohlenforschung      #
                #                Kaiser Wilhelm Platz 1                 #
                #                 D-45470 Muelheim/Ruhr                 #
                #                      Germany                          #
                #                                                       #
                #                  All rights reserved                  #
                #                        -***-                          #
                #########################################################


                         Program Version 6.0.1  -  RELEASE   -


 With contributions from (in alphabetic order):
[Max-Planck-Institut fuer Kohlenforschung]                               
  Daniel Aravena         : Magnetic Suceptibility                        
  Michael Atanasov       : Ab Initio Ligand Field Theory (pilot matlab implementation)
  Alexander A. Auer      : GIAO ZORA, VPT2 properties, NMR spectrum      
  Ute Becker             : All parallelization in ORCA, NUMFREQ, NUMCALC 
  Giovanni Bistoni       : ED, misc. LED, open-shell LED, HFLD           
  Martin Brehm           : Molecular dynamics                            
  Dmytro Bykov           : pre 5.0 version of the SCF Hessian            
  Marcos Casanova-Páez   : Triplet and SCS-CIS(D). UHF-(DLPNO)-IP/EA/STEOM-CCSD. UHF-CVS-IP/STEOM-CCSD   
  Vijay G. Chilkuri      : MRCI spin determinant printing, contributions to CSF-ICE 
  Pauline Colinet        : FMM embedding                                 
  Dipayan Datta          : RHF DLPNO-CCSD density                        
  Achintya Kumar Dutta   : EOM-CC, STEOM-CC                              
  Nicolas Foglia         : Exact transition moments, OPA infrastructure, MCD improvements    
  Dmitry Ganyushin       : Spin-Orbit,Spin-Spin,Magnetic field MRCI      
  Miquel Garcia-Rates    : C-PCM and meta-GGA Hessian, CCSD/C-PCM, Gaussian charge scheme 
  Tiago L. C. Gouveia    : GS-ROHF, GS-ROCIS                             
  Yang Guo               : DLPNO-NEVPT2, F12-NEVPT2, CIM, IAO-localization        
  Andreas Hansen         : Spin unrestricted coupled pair/coupled cluster methods 
  Ingolf Harden          : AUTO-CI MPn and infrastructure                
  Benjamin Helmich-Paris : MC-RPA, TRAH-(SCF,CASSCF), AVAS, COSX integrals, SCF dyn. polar. 
  Lee Huntington         : MR-EOM, pCC                                   
  Robert Izsak           : Overlap fitted RIJCOSX, COSX-SCS-MP3, EOM     
  Riya Kayal             : Wick's Theorem for AUTO-CI, AUTO-CI UHF-CCSDT 
  Emily Kempfer          : AUTO-CI, RHF CISDT and CCSDT                  
  Christian Kollmar      : KDIIS, OOCD, Brueckner-CCSD(T), CCSD density, CASPT2, CASPT2-K, improved NEVPT2 
  Axel Koslowski         : Symmetry handling                             
  Simone Kossmann        : meta-GGA functionals, TD-DFT gradient, OOMP2, (MP2 Hessian; deprecated post 5.0) 
  Lucas Lang             : DCDCAS                                        
  Marvin Lechner         : AUTO-CI (C++ implementation), FIC-MRCC        
  Spencer Leger          : CASSCF response                               
  Dagmar Lenk            : GEPOL surface, SMD, ORCA-2-JSON               
  Dimitrios Liakos       : Extrapolation schemes; Compound Job, initial MDCI parallelization 
  Dimitrios Manganas     : Further ROCIS development; embedding schemes. LFT, Crystal Embedding 
  Dimitrios Pantazis     : SARC Basis sets                               
  Anastasios Papadopoulos: AUTO-CI, single reference methods and gradients 
  Taras Petrenko         : pre 6.0 DFT Hessian and TD-DFT gradient, (ASA, deprecated), ECA, 1-Electron XAS/XES, NRVS 
  Peter Pinski           : DLPNO-MP2, DLPNO-MP2 Gradient                 
  Christoph Reimann      : Effective Core Potentials                     
  Marius Retegan         : Local ZFS, SOC                                
  Christoph Riplinger    : Optimizer, TS searches, QM/MM, DLPNO-CCSD(T), (RO)-DLPNO pert. Triples 
  Michael Roemelt        : Original ROCIS implementation                 
  Masaaki Saitow         : Open-shell DLPNO-CCSD energy and density      
  Barbara Sandhoefer     : DKH picture change effects                    
  Kantharuban Sivalingam : CASSCF convergence/infrastructure, NEVPT2 and variants, FIC-MRCI 
  Bernardo de Souza      : ESD, SOC TD-DFT                               
  Georgi L. Stoychev     : AutoAux, RI-MP2 NMR, DLPNO-MP2 response, X2C  
  Van Anh Tran           : RI-MP2 g-tensors                              
  Willem Van den Heuvel  : Paramagnetic NMR                              
  Zikuan Wang            : NOTCH, Electric field optimization            
  Frank Wennmohs         : Technical directorship and infrastructure     
  Hang Xu                : AUTO-CI-Response properties                   
                                                                         
[FACCTs GmbH]                                                            
  Markus Bursch, Miquel Garcia-Rates, Christoph Riplinger, Bernardo de Souza, Georgi L. Stoychev 
                                                                 
  APM, Basis sets (HGBS, AHGBS, def-TZVP (Ac-Lr), def2-XVPD (La-Lu)), CI-OPT, improved COSX, DLPNO-Multilevel,           
  DOCKER, DRACO, updates on ESD, GOAT, IRC, LR-CPCM, MBIS, meta-GGA TD-DFT gradient, ML-optimized integration grids, 
  MM, NACMEs, nearIR, NEB, NEB-TS, NL-DFT gradient (VV10), 2- and 3-layer-ONIOM, interface openCOSMO-RS, QMMM,   
  Crystal-QMMM, SF, symmetry and pop. for TD-DFT, r2SCAN hybrids, SOLVATOR                                   
                                                                         
[Other institutions]                                                     
  V. Asgeirsson          : NEB                                           
  Christoph Bannwarth    : sTDA-DFT, sTD-DFT, PBEh-3c, B97-3c, D3        
  Sebastian Ehlert       : rSCAN, r2SCAN, r2SCAN-3c, D4, dhf basis sets  
  Marvin Friede          : D4 for Fr, Ra, Ac-Lr                          
  Lars Goerigk           : TD-DFT with DH, B97 family of functionals     
  Stefan Grimme          : VdW corrections, initial TS optimization, DFT functionals, gCP, sTDA/sTD-DF 
  Waldemar Hujo          : DFT-NL                                        
  H. Jonsson             : NEB                                           
  Holger Kruse           : gCP                                           
  Marcel Mueller         : wB97X-3c, vDZP basis set                      
  Hagen Neugebauer       : wr2SCAN                                       
  Tobias Risthaus        : range-separated hybrid DFT                    
  Lukas Wittmann         : regularized MP2, r2SCAN double-hybrids, wr2SCAN        
                                                                         
We gratefully acknowledge several colleagues who have allowed us to      
interface, adapt or use parts of their codes:                            
  Ed Valeev, F. Pavosevic, A. Kumar             : LibInt (2-el integral package), F12 methods 
  Garnet Chan, S. Sharma, J. Yang, R. Olivares  : DMRG                   
  Ulf Ekstrom                                   : XCFun DFT Library      
  Mihaly Kallay                                 : mrcc  (arbitrary order and MRCC methods)
  Frank Weinhold                                : gennbo (NPA and NBO analysis)           
  Simon Mueller                                 : openCOSMO-RS                            
  Christopher J. Cramer and Donald G. Truhlar   : smd solvation model                     
  S Lehtola, MJT Oliveira, MAL Marques          : LibXC Library                           
  Liviu Ungur et al                             : ANISO software                          


 Your calculation uses the libint2 library for the computation of 2-el integrals
 For citations please refer to: http://libint.valeyev.net

 Your ORCA version has been built with support for libXC version: 6.2.2
 For citations please refer to: https://libxc.gitlab.io

 This ORCA versions uses:
   CBLAS   interface :  Fast vector & matrix operations
   LAPACKE interface :  Fast linear algebra routines
   SCALAPACK package :  Parallel linear algebra routines
   Shared memory     :  Shared parallel matrices
   BLAS/LAPACK       :  OpenBLAS 0.3.27  USE64BITINT DYNAMIC_ARCH NO_AFFINITY SapphireRapids SINGLE_THREADED
        Core in use  :  SapphireRapids
   Copyright (c) 2011-2014, The OpenBLAS Project




***************************************
The coordinates will be read from file: /scratch/kx58/rs2200/dhdft/inputs/compas3x-xyzs/hc_c24h14_0pent_7.xyz
***************************************


Your calculation utilizes the atom-pairwise dispersion correction
based on EEQ partial charges (D4)


Warning: RI is on but no J-basis has been assigned. Assigning Def2/J (nothing to worry about!)
================================================================================

----- Orbital basis set information -----
Your calculation utilizes the basis: def2-SVP
   F. Weigend and R. Ahlrichs, Phys. Chem. Chem. Phys. 7, 3297 (2005).

----- AuxJ basis set information -----
Your calculation utilizes the auxiliary basis: def2/J
   F. Weigend, Phys. Chem. Chem. Phys. 8, 1057 (2006).

----- AuxC basis set information -----
Your calculation utilizes the auxiliary basis: def2-SVP/C
  H-La, Hf-Rn : A. Hellweg, C. Hattig, S. Hofener and W. Klopper, Theor. Chem. Acc. 117, 587 (2007).
        Ce-Lu : J. Chmela and M. E. Harding, Mol. Phys. (2018).

================================================================================
                                        WARNINGS
                       Please study these warnings very carefully!
================================================================================


WARNING: No MP2 level density has been requested!
         To calculate MP2 level properties use
         %mp2 Density relaxed end
         or
         %mp2 Density unrelaxed end
         Otherwise for double-hybrid DFT only the energy is correct!

================================================================================
                                       INPUT FILE
================================================================================
NAME = hc_c24h14_0pent_7_dz_ri.inp
|  1> ! RKS revDSD-PBEP86-D4/2021 defgrid3  NOPOP NoFrozencore NoUseSym
|  2> 
|  3> %basis
|  4>   Basis "def2-SVP"
|  5>   
|  6>   AuxC "def2-SVP/C"
|  7> end
|  8> 
|  9> %method
| 10>   ScalHFX 0.69
| 11>   ScalDFX 0.31
| 12>   ScalDFC 0.4038
| 13>   ScalLDAC 0.4038
| 14> 
| 15>   D4S6 0.4612
| 16>   D4S8 0.0
| 17>   D4A1 0.44
| 18>   D4A2 3.60
| 19> end
| 20> 
| 21> %mp2
| 22>   PS 0.5979
| 23>   PT 0.0571
| 24> end
| 25> 
| 26> %pal
| 27>     nprocs 104
| 28> end
| 29> 
| 30> *XYZFILE 0 1 /scratch/kx58/rs2200/dhdft/inputs/compas3x-xyzs/hc_c24h14_0pent_7.xyz
| 31> 
| 32>                          ****END OF INPUT****
================================================================================

                       ****************************
                       * Single Point Calculation *
                       ****************************

---------------------------------
CARTESIAN COORDINATES (ANGSTROEM)
---------------------------------
  C      0.853632    0.857442    0.009456
  C     -0.509270    1.227043   -0.002885
  C     -0.894439    2.590747   -0.003807
  C      0.090347    3.606582    0.010897
  C      1.454510    3.213869    0.027228
  C      1.815859    1.906530    0.025946
  C      1.209923   -0.523242    0.006081
  C      0.194732   -1.516253    0.000518
  C     -1.143557   -1.111516   -0.011063
  C     -1.514101    0.221604   -0.015355
  C     -2.887759    0.612884   -0.031211
  C     -3.248315    1.914229   -0.033728
  C     -2.265872    2.950442   -0.019614
  C     -2.615881    4.298858   -0.021084
  C     -1.642932    5.285191   -0.006521
  C     -0.305155    4.948136    0.009581
  C      2.568311   -0.943391    0.005018
  C      2.911517   -2.253061    0.001261
  C      1.925843   -3.275156    0.003101
  C      0.558414   -2.916021    0.004540
  C      2.298845   -4.628972    0.004497
  C      1.351706   -5.619163    0.009476
  C     -0.000211   -5.274421    0.013819
  C     -0.385368   -3.956155    0.011118
  H      2.209338    3.987717    0.040886
  H      2.866964    1.666736    0.039763
  H     -1.933206   -1.846212   -0.019419
  H     -3.635394   -0.168022   -0.041433
  H     -4.290342    2.201400   -0.046140
  H     -3.661659    4.571430   -0.033751
  H     -1.935821    6.325268   -0.007822
  H      0.451843    5.719294    0.021150
  H      3.353379   -0.204757    0.004222
  H      3.951867   -2.546581   -0.002087
  H      3.351316   -4.875475    0.002249
  H      1.643344   -6.659084    0.010735
  H     -0.749785   -6.052442    0.019530
  H     -1.440624   -3.734476    0.015847

----------------------------
CARTESIAN COORDINATES (A.U.)
----------------------------
  NO LB      ZA    FRAG     MASS         X           Y           Z
   0 C     6.0000    0    12.011    1.613130    1.620331    0.017868
   1 C     6.0000    0    12.011   -0.962381    2.318775   -0.005452
   2 C     6.0000    0    12.011   -1.690244    4.895802   -0.007194
   3 C     6.0000    0    12.011    0.170731    6.815452    0.020593
   4 C     6.0000    0    12.011    2.748625    6.073333    0.051454
   5 C     6.0000    0    12.011    3.431476    3.602819    0.049031
   6 C     6.0000    0    12.011    2.286424   -0.988785    0.011491
   7 C     6.0000    0    12.011    0.367990   -2.865303    0.000979
   8 C     6.0000    0    12.011   -2.161009   -2.100462   -0.020907
   9 C     6.0000    0    12.011   -2.861236    0.418771   -0.029017
  10 C     6.0000    0    12.011   -5.457074    1.158183   -0.058979
  11 C     6.0000    0    12.011   -6.138427    3.617369   -0.063737
  12 C     6.0000    0    12.011   -4.281878    5.575527   -0.037066
  13 C     6.0000    0    12.011   -4.943299    8.123663   -0.039843
  14 C     6.0000    0    12.011   -3.104691    9.987563   -0.012323
  15 C     6.0000    0    12.011   -0.576658    9.350622    0.018106
  16 C     6.0000    0    12.011    4.853403   -1.782751    0.009483
  17 C     6.0000    0    12.011    5.501969   -4.257669    0.002382
  18 C     6.0000    0    12.011    3.639317   -6.189149    0.005861
  19 C     6.0000    0    12.011    1.055250   -5.510482    0.008580
  20 C     6.0000    0    12.011    4.344187   -8.747490    0.008498
  21 C     6.0000    0    12.011    2.554355  -10.618678    0.017907
  22 C     6.0000    0    12.011   -0.000399   -9.967211    0.026115
  23 C     6.0000    0    12.011   -0.728240   -7.476049    0.021011
  24 H     1.0000    0     1.008    4.175043    7.535692    0.077263
  25 H     1.0000    0     1.008    5.417777    3.149675    0.075141
  26 H     1.0000    0     1.008   -3.653229   -3.488835   -0.036696
  27 H     1.0000    0     1.008   -6.869899   -0.317516   -0.078297
  28 H     1.0000    0     1.008   -8.107571    4.160043   -0.087193
  29 H     1.0000    0     1.008   -6.919534    8.638751   -0.063781
  30 H     1.0000    0     1.008   -3.658171   11.953025   -0.014782
  31 H     1.0000    0     1.008    0.853860   10.807899    0.039967
  32 H     1.0000    0     1.008    6.336968   -0.386935    0.007979
  33 H     1.0000    0     1.008    7.467947   -4.812341   -0.003943
  34 H     1.0000    0     1.008    6.333070   -9.213312    0.004250
  35 H     1.0000    0     1.008    3.105471  -12.583846    0.020286
  36 H     1.0000    0     1.008   -1.416889  -11.437457    0.036906
  37 H     1.0000    0     1.008   -2.722385   -7.057137    0.029946

--------------------------------
INTERNAL COORDINATES (ANGSTROEM)
--------------------------------
 C      0   0   0     0.000000000000     0.00000000     0.00000000
 C      1   0   0     1.412181739560     0.00000000     0.00000000
 C      2   1   0     1.417055000697   120.94393361     0.00000000
 C      3   2   1     1.414898949746   120.11494646   359.85147727
 C      4   3   2     1.419658550871   118.05498339   359.95892296
 C      5   4   3     1.356359550849   121.50769621     0.14409762
 C      1   2   3     1.425919334530   119.63997043   180.18418845
 C      7   1   2     1.420110836899   119.89769585   359.52766279
 C      8   7   1     1.398199765525   118.80680926     0.44558705
 C      9   8   7     1.383666104184   122.36052926   359.90480960
 C     10   9   8     1.428386478177   121.43272876   179.81246495
 C     11  10   9     1.350372677366   121.38467279   179.91756466
 C      3   2   1     1.417906955714   120.46666119   179.84226688
 C     13   3   2     1.393102131933   119.24625466   180.04414572
 C     14  13   3     1.385530926918   120.83755872   359.96076251
 C     15  14  13     1.379678688671   120.47120525     0.00000000
 C      7   1   2     1.421879500549   121.65658424   179.38006406
 C     17   7   1     1.353898426149   121.87127483   180.02772061
 C     18  17   7     1.419941247311   121.35439230   359.76768231
 C     19  18  17     1.413804125044   119.24523047     0.20620187
 C     19  18  17     1.404261273773   120.63542886   180.25367374
 C     21  19  18     1.370245732734   120.86914665   179.84408999
 C     22  21  19     1.395186797119   119.42168452   359.97071193
 C     23  22  21     1.373382285475   120.59176835     0.09793838
 H      5   4   3     1.081106830873   118.23218561   180.14424016
 H      6   5   4     1.078199558802   118.29867957   180.05681503
 H      9   8   7     1.078606971381   120.23994047   179.75804666
 H     11  10   9     1.081146000931   117.85731630   359.90379178
 H     12  11  10     1.080943788232   120.89287697   179.97705665
 H     14  13   3     1.080790541478   119.15836759   179.96299236
 H     15  14  13     1.080530924361   119.66133852   180.00758188
 H     16  15  14     1.080677537657   120.33178841   180.01406237
 H     17   7   1     1.077920519752   119.55874755   359.84271214
 H     18  17   7     1.080969493961   120.44037843   179.83919983
 H     21  19  18     1.080955264234   118.58546571   359.88585423
 H     22  21  19     1.080042360430   120.60730196   180.01255033
 H     23  22  21     1.080375280199   119.62796353   180.10855882
 H     24  23  22     1.078299185767   118.14948519   180.07141651

---------------------------
INTERNAL COORDINATES (A.U.)
---------------------------
 C      0   0   0     0.000000000000     0.00000000     0.00000000
 C      1   0   0     2.668636739094     0.00000000     0.00000000
 C      2   1   0     2.677845868020   120.94393361     0.00000000
 C      3   2   1     2.673771522193   120.11494646   359.85147727
 C      4   3   2     2.682765864826   118.05498339   359.95892296
 C      5   4   3     2.563148090232   121.50769621     0.14409762
 C      1   2   3     2.694597031324   119.63997043   180.18418845
 C      7   1   2     2.683620561553   119.89769585   359.52766279
 C      8   7   1     2.642214637355   118.80680926     0.44558705
 C      9   8   7     2.614749997698   122.36052926   359.90480960
 C     10   9   8     2.699259257152   121.43272876   179.81246495
 C     11  10   9     2.551834538952   121.38467279   179.91756466
 C      3   2   1     2.679455829682   120.46666119   179.84226688
 C     13   3   2     2.632581505935   119.24625466   180.04414572
 C     14  13   3     2.618274001953   120.83755872   359.96076251
 C     15  14  13     2.607214874395   120.47120525     0.00000000
 C      7   1   2     2.686962851475   121.65658424   179.38006406
 C     17   7   1     2.558497238568   121.87127483   180.02772061
 C     18  17   7     2.683300083677   121.35439230   359.76768231
 C     19  18  17     2.671702603341   119.24523047     0.20620187
 C     19  18  17     2.653669227902   120.63542886   180.25367374
 C     21  19  18     2.589389171041   120.86914665   179.84408999
 C     22  21  19     2.636520952217   119.42168452   359.97071193
 C     23  22  21     2.595316396726   120.59176835     0.09793838
 H      5   4   3     2.042995831862   118.23218561   180.14424016
 H      6   5   4     2.037501883851   118.29867957   180.05681503
 H      9   8   7     2.038271782049   120.23994047   179.75804666
 H     11  10   9     2.043069852543   117.85731630   359.90379178
 H     12  11  10     2.042687725921   120.89287697   179.97705665
 H     14  13   3     2.042398131527   119.15836759   179.96299236
 H     15  14  13     2.041907526275   119.66133852   180.00758188
 H     16  15  14     2.042184585252   120.33178841   180.01406237
 H     17   7   1     2.036974576466   119.55874755   359.84271214
 H     18  17   7     2.042736302709   120.44037843   179.83919983
 H     21  19  18     2.042709412422   118.58546571   359.88585423
 H     22  21  19     2.040984274247   120.60730196   180.01255033
 H     23  22  21     2.041613401434   119.62796353   180.10855882
 H     24  23  22     2.037690151529   118.14948519   180.07141651

---------------------
BASIS SET INFORMATION
---------------------
There are 2 groups of distinct atoms

 Group   1 Type C   : 7s4p1d contracted to 3s2p1d pattern {511/31/1}
 Group   2 Type H   : 4s1p contracted to 2s1p pattern {31/1}

Atom   0C    basis set group =>   1
Atom   1C    basis set group =>   1
Atom   2C    basis set group =>   1
Atom   3C    basis set group =>   1
Atom   4C    basis set group =>   1
Atom   5C    basis set group =>   1
Atom   6C    basis set group =>   1
Atom   7C    basis set group =>   1
Atom   8C    basis set group =>   1
Atom   9C    basis set group =>   1
Atom  10C    basis set group =>   1
Atom  11C    basis set group =>   1
Atom  12C    basis set group =>   1
Atom  13C    basis set group =>   1
Atom  14C    basis set group =>   1
Atom  15C    basis set group =>   1
Atom  16C    basis set group =>   1
Atom  17C    basis set group =>   1
Atom  18C    basis set group =>   1
Atom  19C    basis set group =>   1
Atom  20C    basis set group =>   1
Atom  21C    basis set group =>   1
Atom  22C    basis set group =>   1
Atom  23C    basis set group =>   1
Atom  24H    basis set group =>   2
Atom  25H    basis set group =>   2
Atom  26H    basis set group =>   2
Atom  27H    basis set group =>   2
Atom  28H    basis set group =>   2
Atom  29H    basis set group =>   2
Atom  30H    basis set group =>   2
Atom  31H    basis set group =>   2
Atom  32H    basis set group =>   2
Atom  33H    basis set group =>   2
Atom  34H    basis set group =>   2
Atom  35H    basis set group =>   2
Atom  36H    basis set group =>   2
Atom  37H    basis set group =>   2
---------------------------------
AUXILIARY/J BASIS SET INFORMATION
---------------------------------
There are 2 groups of distinct atoms

 Group   1 Type C   : 12s5p4d2f1g contracted to 6s4p3d1f1g pattern {711111/2111/211/2/1}
 Group   2 Type H   : 5s2p1d contracted to 3s1p1d pattern {311/2/1}

Atom   0C    basis set group =>   1
Atom   1C    basis set group =>   1
Atom   2C    basis set group =>   1
Atom   3C    basis set group =>   1
Atom   4C    basis set group =>   1
Atom   5C    basis set group =>   1
Atom   6C    basis set group =>   1
Atom   7C    basis set group =>   1
Atom   8C    basis set group =>   1
Atom   9C    basis set group =>   1
Atom  10C    basis set group =>   1
Atom  11C    basis set group =>   1
Atom  12C    basis set group =>   1
Atom  13C    basis set group =>   1
Atom  14C    basis set group =>   1
Atom  15C    basis set group =>   1
Atom  16C    basis set group =>   1
Atom  17C    basis set group =>   1
Atom  18C    basis set group =>   1
Atom  19C    basis set group =>   1
Atom  20C    basis set group =>   1
Atom  21C    basis set group =>   1
Atom  22C    basis set group =>   1
Atom  23C    basis set group =>   1
Atom  24H    basis set group =>   2
Atom  25H    basis set group =>   2
Atom  26H    basis set group =>   2
Atom  27H    basis set group =>   2
Atom  28H    basis set group =>   2
Atom  29H    basis set group =>   2
Atom  30H    basis set group =>   2
Atom  31H    basis set group =>   2
Atom  32H    basis set group =>   2
Atom  33H    basis set group =>   2
Atom  34H    basis set group =>   2
Atom  35H    basis set group =>   2
Atom  36H    basis set group =>   2
Atom  37H    basis set group =>   2
---------------------------------
AUXILIARY/C BASIS SET INFORMATION
---------------------------------
There are 2 groups of distinct atoms

 Group   1 Type C   : 8s6p5d3f contracted to 6s5p4d1f pattern {311111/21111/2111/3}
 Group   2 Type H   : 4s3p2d contracted to 3s2p1d pattern {211/21/2}

Atom   0C    basis set group =>   1
Atom   1C    basis set group =>   1
Atom   2C    basis set group =>   1
Atom   3C    basis set group =>   1
Atom   4C    basis set group =>   1
Atom   5C    basis set group =>   1
Atom   6C    basis set group =>   1
Atom   7C    basis set group =>   1
Atom   8C    basis set group =>   1
Atom   9C    basis set group =>   1
Atom  10C    basis set group =>   1
Atom  11C    basis set group =>   1
Atom  12C    basis set group =>   1
Atom  13C    basis set group =>   1
Atom  14C    basis set group =>   1
Atom  15C    basis set group =>   1
Atom  16C    basis set group =>   1
Atom  17C    basis set group =>   1
Atom  18C    basis set group =>   1
Atom  19C    basis set group =>   1
Atom  20C    basis set group =>   1
Atom  21C    basis set group =>   1
Atom  22C    basis set group =>   1
Atom  23C    basis set group =>   1
Atom  24H    basis set group =>   2
Atom  25H    basis set group =>   2
Atom  26H    basis set group =>   2
Atom  27H    basis set group =>   2
Atom  28H    basis set group =>   2
Atom  29H    basis set group =>   2
Atom  30H    basis set group =>   2
Atom  31H    basis set group =>   2
Atom  32H    basis set group =>   2
Atom  33H    basis set group =>   2
Atom  34H    basis set group =>   2
Atom  35H    basis set group =>   2
Atom  36H    basis set group =>   2
Atom  37H    basis set group =>   2


           ************************************************************
           *        Program running with 104 parallel MPI-processes   *
           *              working on a common directory               *
           ************************************************************
------------------------------------------------------------------------------
                             ORCA STARTUP CALCULATIONS
                           -- RI-GTO INTEGRALS CHOSEN --
------------------------------------------------------------------------------
------------------------------------------------------------------------------
                   ___                                                        
                  /   \      - P O W E R E D   B Y -                         
                 /     \                                                     
                 |  |  |   _    _      __       _____    __    __             
                 |  |  |  | |  | |    /  \     |  _  \  |  |  /  |          
                  \  \/   | |  | |   /    \    | | | |  |  | /  /          
                 / \  \   | |__| |  /  /\  \   | |_| |  |  |/  /          
                |  |  |   |  __  | /  /__\  \  |    /   |      \           
                |  |  |   | |  | | |   __   |  |    \   |  |\   \          
                \     /   | |  | | |  |  |  |  | |\  \  |  | \   \       
                 \___/    |_|  |_| |__|  |__|  |_| \__\ |__|  \__/        
                                                                              
                      - O R C A' S   B I G   F R I E N D -                    
                                      &                                       
                       - I N T E G R A L  F E E D E R -                       
                                                                              
 v1 FN, 2020, v2 2021, v3 2022-2024                                           
------------------------------------------------------------------------------


----------------------
SHARK INTEGRAL PACKAGE
----------------------

Number of atoms                             ...     38
Number of basis functions                   ...    406
Number of shells                            ...    186
Maximum angular momentum                    ...      2
Integral batch strategy                     ... SHARK/LIBINT Hybrid
RI-J (if used) integral strategy            ... SPLIT-RIJ (Revised 2003 algorithm where possible)
Printlevel                                  ...      1
Contraction scheme used                     ... SEGMENTED contraction
Prescreening option                         ... SCHWARTZ
   Thresh                                   ... 1.000e-10
   Tcut                                     ... 1.000e-11
   Tpresel                                  ... 1.000e-11 
Coulomb Range Separation                    ... NOT USED
Exchange Range Separation                   ... NOT USED
Multipole approximations                    ... NOT USED
Finite Nucleus Model                        ... NOT USED
CABS basis                                  ... NOT available
Auxiliary Coulomb fitting basis             ... AVAILABLE
   # of basis functions in Aux-J            ...   1330
   # of shells in Aux-J                     ...    430
   Maximum angular momentum in Aux-J        ...      4
Auxiliary J/K fitting basis                 ... NOT available
Auxiliary Correlation fitting basis         ... AVAILABLE
   # of basis functions in Aux-C            ...   1348
   # of shells in Aux-C                     ...    468
   Maximum angular momentum in Aux-C        ...      3
Auxiliary 'external' fitting basis          ... NOT available

Checking pre-screening integrals            ... done (  0.0 sec) Dimension = 186
Check shell pair data                       ... done (  0.0 sec)
Shell pair information
Shell pair cut-off parameter TPreSel        ...   1.0e-11
Total number of shell pairs                 ...     17391
Shell pairs after pre-screening             ...     12347
Total number of primitive shell pairs       ...     64615
Primitive shell pairs kept                  ...     29423
          la=0 lb=0:   3586 shell pairs
          la=1 lb=0:   4503 shell pairs
          la=1 lb=1:   1479 shell pairs
          la=2 lb=0:   1567 shell pairs
          la=2 lb=1:   1039 shell pairs
          la=2 lb=2:    173 shell pairs

Calculating one electron integrals          ... done (  0.0 sec)
Calculating RI/J V-Matrix + Cholesky decomp.... done (  0.3 sec)
Calculating RI/C V-Matrix + Cholesky decomp.... done (  0.3 sec)
Calculating Nuclear repulsion               ... done (  0.0 sec) ENN=   1785.218947893504 Eh

Diagonalization of the overlap matrix:
Smallest eigenvalue                        ... 1.392e-04
Time for diagonalization                   ...    0.020 sec
Threshold for overlap eigenvalues          ... 1.000e-07
Number of eigenvalues below threshold      ... 0
Time for construction of square roots      ...    0.015 sec
Total time needed                          ...    0.056 sec

-------------------
DFT GRID GENERATION
-------------------

General Integration Accuracy     IntAcc      ... 4.959
Radial Grid Type                 RadialGrid  ... OptM3 with GC (2021)
Angular Grid (max. ang.)         AngularGrid ... 6 (Lebedev-590)
Angular grid pruning method      GridPruning ... 4 (adaptive)
Weight generation scheme         WeightScheme... mBecke (2022)
Basis function cutoff            BFCut       ... 1.0000e-10
Integration weight cutoff        WCut        ... 1.0000e-14
Partially contracted basis set               ... off
Rotationally invariant grid construction     ... off
Angular grids for H and He will be reduced by one unit

Total number of grid points                  ...   457653
Total number of batches                      ...     7168
Average number of points per batch           ...       63
Average number of grid points per atom       ...    12044

--------------------
COSX GRID GENERATION
--------------------

GRIDX 1
-------
General Integration Accuracy     IntAcc      ... 4.020
Radial Grid Type                 RadialGrid  ... OptM3 with GC (2021)
Angular Grid (max. ang.)         AngularGrid ... 2 (Lebedev-110)
Angular grid pruning method      GridPruning ... 4 (adaptive)
Weight generation scheme         WeightScheme... mBecke (2022)
Basis function cutoff            BFCut       ... 1.0000e-10
Integration weight cutoff        WCut        ... 1.0000e-14
Partially contracted basis set               ... on
Rotationally invariant grid construction     ... off
Angular grids for H and He will be reduced by one unit

Total number of grid points                  ...    52299
Total number of batches                      ...      424
Average number of points per batch           ...      123
Average number of grid points per atom       ...     1376
UseSFitting                                  ... on

GRIDX 2
-------
General Integration Accuracy     IntAcc      ... 4.338
Radial Grid Type                 RadialGrid  ... OptM3 with GC (2021)
Angular Grid (max. ang.)         AngularGrid ... 3 (Lebedev-194)
Angular grid pruning method      GridPruning ... 4 (adaptive)
Weight generation scheme         WeightScheme... mBecke (2022)
Basis function cutoff            BFCut       ... 1.0000e-10
Integration weight cutoff        WCut        ... 1.0000e-14
Partially contracted basis set               ... on
Rotationally invariant grid construction     ... off
Angular grids for H and He will be reduced by one unit

Total number of grid points                  ...   114439
Total number of batches                      ...      915
Average number of points per batch           ...      125
Average number of grid points per atom       ...     3012
UseSFitting                                  ... on

GRIDX 3
-------
General Integration Accuracy     IntAcc      ... 4.871
Radial Grid Type                 RadialGrid  ... OptM3 with GC (2021)
Angular Grid (max. ang.)         AngularGrid ... 4 (Lebedev-302)
Angular grid pruning method      GridPruning ... 4 (adaptive)
Weight generation scheme         WeightScheme... mBecke (2022)
Basis function cutoff            BFCut       ... 1.0000e-10
Integration weight cutoff        WCut        ... 1.0000e-14
Partially contracted basis set               ... on
Rotationally invariant grid construction     ... off
Angular grids for H and He will be reduced by one unit

Total number of grid points                  ...   211319
Total number of batches                      ...     1674
Average number of points per batch           ...      126
Average number of grid points per atom       ...     5561
UseSFitting                                  ... on
Initializing property integral containers    ... done (  0.0 sec)

SHARK setup successfully completed in   6.7 seconds

Maximum memory used throughout the entire STARTUP-calculation: 88.6 MB


           ************************************************************
           *        Program running with 104 parallel MPI-processes   *
           *              working on a common directory               *
           ************************************************************
-------------------------------------------------------------------------------
                                 ORCA GUESS
                   Start orbitals & Density for SCF / CASSCF
-------------------------------------------------------------------------------

------------
SCF SETTINGS
------------
Hamiltonian:
 Density Functional     Method          .... DFT(GTOs)
 Exchange Functional    Exchange        .... PBE
   PBE kappa parameter   XKappa         ....  0.804000
   PBE mue parameter    XMuePBE         ....  0.219520
 Correlation Functional Correlation     .... P86
 LDA part of GGA corr.  LDAOpt          .... VWN-5
 Gradients option       PostSCFGGA      .... off
 Hybrid DFT is turned on
   Fraction HF Exchange ScalHFX         ....  0.690000
   Scaling of DF-GGA-X  ScalDFX         ....  0.310000
   Scaling of DF-GGA-C  ScalDFC         ....  0.403800
   Scaling of DF-LDA-C  ScalLDAC        ....  0.403800
   Perturbative correction              ....  1.000000
 RI-approximation to the Coulomb term is turned on
   Number of AuxJ basis functions       .... 1330
   RIJ-COSX (HFX calculated with COS-X)).... on


General Settings:
 Integral files         IntName         .... hc_c24h14_0pent_7_dz_ri
 Hartree-Fock type      HFTyp           .... RHF
 Total Charge           Charge          ....    0
 Multiplicity           Mult            ....    1
 Number of Electrons    NEL             ....  158
 Basis Dimension        Dim             ....  406
 Nuclear Repulsion      ENuc            ....   1785.2189478935 Eh

Convergence Acceleration:
 AO-DIIS                CNVDIIS         .... on
   Start iteration      DIISMaxIt       ....    12
   Startup error        DIISStart       ....  0.200000
   # of expansion vecs  DIISMaxEq       ....     5
   Bias factor          DIISBfac        ....   1.050
   Max. coefficient     DIISMaxC        ....  10.000
 MO-DIIS                CNVKDIIS        .... off
 Trust-Rad. Augm. Hess. CNVTRAH         .... auto
   Auto Start mean grad. ratio tolernc. ....  1.125000
   Auto Start start iteration           ....    50
   Auto Start num. interpolation iter.  ....    10
   Max. Number of Micro iterations      ....    24
   Max. Number of Macro iterations      .... Maxiter - #DIIS iter
   Number of Davidson start vectors     ....     2
   Converg. threshold    (grad. norm)   ....   5.000e-05
   Grad. Scal. Fac. for Micro threshold ....   0.100
   Minimum threshold for Micro iter.    ....   1.000e-02
   NR start threshold (gradient norm)   ....   1.000e-04
   Initial trust radius                 ....   0.400
   Minimum AH scaling param. (alpha)    ....   1.000
   Maximum AH scaling param. (alpha)    .... 1000.000
   Quad. conv. algorithm                .... NR
   White noise on init. David. guess    .... on
   Maximum white noise                  ....   0.010
   Pseudo random numbers                .... off
   Inactive MOs                         .... canonical
   Orbital update algorithm             .... Taylor
   Preconditioner                       .... Diag
   Full preconditioner red. dimension   ....   250
 SOSCF                  CNVSOSCF        .... on
   Start iteration      SOSCFMaxIt      ....   150
   Startup grad/error   SOSCFStart      ....  0.003300
   Hessian update       SOSCFHessUp     .... L-BFGS
 Level Shifting         CNVShift        .... on
   Level shift para.    LevelShift      ....    0.2500
   Turn off err/grad.   ShiftErr        ....    0.0010
 Zerner damping         CNVZerner       .... off
 Static damping         CNVDamp         .... on
   Fraction old density DampFac         ....    0.7000
   Max. Damping (<1)    DampMax         ....    0.9800
   Min. Damping (>=0)   DampMin         ....    0.0000
   Turn off err/grad.   DampErr         ....    0.1000

SCF Procedure:
 Maximum # iterations   MaxIter         ....   125
 SCF integral mode      SCFMode         .... Direct
   Integral package                     .... SHARK and LIBINT hybrid scheme
 Reset frequency        DirectResetFreq ....    20
 Integral Threshold     Thresh          ....  1.000e-10 Eh
 Primitive CutOff       TCut            ....  1.000e-11 Eh

Convergence Tolerance:
 Convergence Check Mode ConvCheckMode   .... Total+1el-Energy
 Convergence forced     ConvForced      .... 0
 Energy Change          TolE            ....  1.000e-06 Eh
 1-El. energy change                    ....  1.000e-03 Eh
 Orbital Gradient       TolG            ....  5.000e-05
 Orbital Rotation angle TolX            ....  5.000e-05
 DIIS Error             TolErr          ....  1.000e-06

------------------------------
INITIAL GUESS: MODEL POTENTIAL
------------------------------
Loading Hartree-Fock densities                     ... done
Calculating cut-offs                               ... done
Initializing the effective Hamiltonian             ... done
Setting up the integral package (SHARK)            ... done
Starting the Coulomb interaction                   ... done (   0.1 sec)
Making the grid                                    ... done (   0.2 sec)
Mapping shells                                     ... done
Starting the XC term evaluation                    ... done (   0.0 sec)
  promolecular density results
     # of electrons  =    158.024891726
     EX              =   -127.053714286
     EC              =      0.200442974
     EX+EC           =   -126.853271312
Transforming the Hamiltonian                       ... done (   0.0 sec)
Diagonalizing the Hamiltonian                      ... done (   0.0 sec)
Back transforming the eigenvectors                 ... done (   0.0 sec)
Now organizing SCF variables                       ... done
                      ------------------
                      INITIAL GUESS DONE (   0.6 sec)
                      ------------------
             **** ENERGY FILE WAS UPDATED (hc_c24h14_0pent_7_dz_ri.en.tmp) ****
Finished Guess after  14.9 sec
Maximum memory used throughout the entire GUESS-calculation: 29.8 MB


           ************************************************************
           *        Program running with 104 parallel MPI-processes   *
           *              working on a common directory               *
           ************************************************************

-------------------------------------------------------------------------------------------
                                      ORCA LEAN-SCF
                              memory conserving SCF solver
-------------------------------------------------------------------------------------------

----------------------------------------D-I-I-S--------------------------------------------
Iteration    Energy (Eh)           Delta-E    RMSDP     MaxDP     DIISErr   Damp  Time(sec)
-------------------------------------------------------------------------------------------
               ***  Starting incremental Fock matrix formation  ***
    1    -918.1536465730434884     0.00e+00  3.95e-03  1.12e-01  1.15e-01  0.700   1.6
    2    -918.2992891614860582    -1.46e-01  2.99e-03  8.37e-02  7.44e-02  0.700   1.6
                               ***Turning on AO-DIIS***
    3    -918.3871185608911674    -8.78e-02  2.00e-03  5.82e-02  4.53e-02  0.700   1.5
    4    -918.4423514994107336    -5.52e-02  4.69e-03  1.39e-01  3.09e-02  0.000   1.5
                              *** Initializing SOSCF ***
---------------------------------------S-O-S-C-F--------------------------------------
Iteration    Energy (Eh)           Delta-E    RMSDP     MaxDP     MaxGrad    Time(sec)
--------------------------------------------------------------------------------------
    5    -918.5625802972374458    -1.20e-01  1.88e-04  5.35e-03  2.15e-03     1.7
               *** Restarting incremental Fock matrix formation ***
    6    -918.5630278323708353    -4.48e-04  9.97e-05  2.53e-03  1.34e-03     1.6
    7    -918.5631163866985389    -8.86e-05  8.59e-05  1.91e-03  7.26e-04     1.5
    8    -918.5631359532533224    -1.96e-05  3.52e-05  9.48e-04  4.33e-04     1.7
    9    -918.5631438400748721    -7.89e-06  9.61e-06  3.31e-04  3.98e-05     1.6
   10    -918.5631442761052767    -4.36e-07  3.26e-06  9.52e-05  2.47e-05     1.5
                 **** Energy Check signals convergence ****

               *****************************************************
               *                     SUCCESS                       *
               *           SCF CONVERGED AFTER  10 CYCLES          *
               *****************************************************

Recomputing exchange energy using gridx3       ... done (    0.796 sec)
Old exchange energy                            :    -89.354768246 Eh
New exchange energy                            :    -89.354684962 Eh
Exchange energy change after final integration :      0.000083284 Eh
Total energy after final integration           :   -918.563060992 Eh
             **** ENERGY FILE WAS UPDATED (hc_c24h14_0pent_7_dz_ri.en.tmp) ****

----------------
TOTAL SCF ENERGY
----------------

Total Energy       :       -918.56306099248775 Eh          -24995.37163 eV

Components:
Nuclear Repulsion  :       1785.21894789350404 Eh           48578.27724 eV
Electronic Energy  :      -2703.78209216960931 Eh          -73573.65114 eV
One Electron Energy:      -4788.89738871748978 Eh         -130312.52291 eV
Two Electron Energy:       2085.11529654788046 Eh           56738.87177 eV

Virial components:
Potential Energy   :      -1831.00348302186876 Eh          -49824.13778 eV
Kinetic Energy     :        912.44042202938090 Eh           24828.76615 eV
Virial Ratio       :          2.00671017944327

DFT components:
N(Alpha)           :       79.000025615860 electrons
N(Beta)            :       79.000025615860 electrons
N(Total)           :      158.000051231720 electrons
E(X)               :      -39.974295669427 Eh       
E(C)               :       -2.357936089243 Eh       
E(XC)              :      -42.332231758671 Eh       

---------------
SCF CONVERGENCE
---------------

  Last Energy change         ...    4.3603e-07  Tolerance :   1.0000e-06
  Last MAX-Density change    ...    9.5213e-05  Tolerance :   1.0000e-05
  Last RMS-Density change    ...    3.2613e-06  Tolerance :   1.0000e-06
  Last DIIS Error            ...    2.1457e-03  Tolerance :   1.0000e-06
  Last Orbital Gradient      ...    2.4745e-05  Tolerance :   5.0000e-05
  Last Orbital Rotation      ...    7.6466e-05  Tolerance :   5.0000e-05


----------------
ORBITAL ENERGIES
----------------

  NO   OCC          E(Eh)            E(eV) 
   0   2.0000     -10.840354      -294.9810 
   1   2.0000     -10.839959      -294.9703 
   2   2.0000     -10.839304      -294.9524 
   3   2.0000     -10.837573      -294.9054 
   4   2.0000     -10.835943      -294.8610 
   5   2.0000     -10.835724      -294.8550 
   6   2.0000     -10.835205      -294.8409 
   7   2.0000     -10.834716      -294.8276 
   8   2.0000     -10.833838      -294.8037 
   9   2.0000     -10.833199      -294.7863 
  10   2.0000     -10.831312      -294.7350 
  11   2.0000     -10.831094      -294.7291 
  12   2.0000     -10.830152      -294.7034 
  13   2.0000     -10.829980      -294.6987 
  14   2.0000     -10.829406      -294.6831 
  15   2.0000     -10.829239      -294.6786 
  16   2.0000     -10.829156      -294.6763 
  17   2.0000     -10.828781      -294.6661 
  18   2.0000     -10.828695      -294.6638 
  19   2.0000     -10.828354      -294.6545 
  20   2.0000     -10.828109      -294.6478 
  21   2.0000     -10.828101      -294.6476 
  22   2.0000     -10.827501      -294.6313 
  23   2.0000     -10.826755      -294.6110 
  24   2.0000      -1.088983       -29.6327 
  25   2.0000      -1.065816       -29.0023 
  26   2.0000      -1.032612       -28.0988 
  27   2.0000      -1.014748       -27.6127 
  28   2.0000      -0.993703       -27.0400 
  29   2.0000      -0.968236       -26.3470 
  30   2.0000      -0.937609       -25.5136 
  31   2.0000      -0.928387       -25.2627 
  32   2.0000      -0.914024       -24.8719 
  33   2.0000      -0.897088       -24.4110 
  34   2.0000      -0.880625       -23.9630 
  35   2.0000      -0.860339       -23.4110 
  36   2.0000      -0.789581       -21.4856 
  37   2.0000      -0.780102       -21.2277 
  38   2.0000      -0.773946       -21.0601 
  39   2.0000      -0.754194       -20.5227 
  40   2.0000      -0.749262       -20.3885 
  41   2.0000      -0.733752       -19.9664 
  42   2.0000      -0.693773       -18.8785 
  43   2.0000      -0.656950       -17.8765 
  44   2.0000      -0.650976       -17.7139 
  45   2.0000      -0.643631       -17.5141 
  46   2.0000      -0.633991       -17.2518 
  47   2.0000      -0.617753       -16.8099 
  48   2.0000      -0.607373       -16.5275 
  49   2.0000      -0.594988       -16.1904 
  50   2.0000      -0.579076       -15.7575 
  51   2.0000      -0.562609       -15.3094 
  52   2.0000      -0.549803       -14.9609 
  53   2.0000      -0.545812       -14.8523 
  54   2.0000      -0.536954       -14.6113 
  55   2.0000      -0.533848       -14.5267 
  56   2.0000      -0.523426       -14.2431 
  57   2.0000      -0.520768       -14.1708 
  58   2.0000      -0.515607       -14.0304 
  59   2.0000      -0.503341       -13.6966 
  60   2.0000      -0.501105       -13.6358 
  61   2.0000      -0.492144       -13.3919 
  62   2.0000      -0.486107       -13.2277 
  63   2.0000      -0.481395       -13.0994 
  64   2.0000      -0.472145       -12.8477 
  65   2.0000      -0.450333       -12.2542 
  66   2.0000      -0.444341       -12.0911 
  67   2.0000      -0.433629       -11.7997 
  68   2.0000      -0.432690       -11.7741 
  69   2.0000      -0.424954       -11.5636 
  70   2.0000      -0.407796       -11.0967 
  71   2.0000      -0.400919       -10.9096 
  72   2.0000      -0.376087       -10.2338 
  73   2.0000      -0.339728        -9.2445 
  74   2.0000      -0.326597        -8.8872 
  75   2.0000      -0.317530        -8.6404 
  76   2.0000      -0.289209        -7.8698 
  77   2.0000      -0.266057        -7.2398 
  78   2.0000      -0.231041        -6.2870 
  79   0.0000      -0.004529        -0.1232 
  80   0.0000       0.023732         0.6458 
  81   0.0000       0.047137         1.2827 
  82   0.0000       0.074063         2.0154 
  83   0.0000       0.085729         2.3328 
  84   0.0000       0.097374         2.6497 
  85   0.0000       0.136734         3.7207 
  86   0.0000       0.141029         3.8376 
  87   0.0000       0.142446         3.8762 
  88   0.0000       0.147892         4.0244 
  89   0.0000       0.159345         4.3360 
*Only the first 10 virtual orbitals were printed.
-------
TIMINGS
-------

Total SCF time: 0 days 0 hours 0 min 31 sec 

Total time                  ....      31.646 sec
Sum of individual times     ....      31.462 sec  ( 99.4%)

SCF preparation             ....      14.735 sec  ( 46.6%)
Fock matrix formation       ....      12.433 sec  ( 39.3%)
  Startup                   ....       0.793 sec  (  6.4% of F)
  Split-RI-J                ....       1.940 sec  ( 15.6% of F)
  Chain of spheres X        ....       4.799 sec  ( 38.6% of F)
  XC integration            ....       3.663 sec  ( 29.5% of F)
    XC Preparation          ....       0.000 sec  (  0.0% of XC)
    Basis function eval.    ....       0.287 sec  (  7.8% of XC)
    Density eval.           ....       0.157 sec  (  4.3% of XC)
    XC-Functional eval.     ....       0.040 sec  (  1.1% of XC)
    XC-Potential eval.      ....       0.148 sec  (  4.1% of XC)
Diagonalization             ....       0.000 sec  (  0.0%)
Density matrix formation    ....       1.064 sec  (  3.4%)
Total Energy calculation    ....       0.680 sec  (  2.1%)
Population analysis         ....       0.000 sec  (  0.0%)
Orbital Transformation      ....       0.284 sec  (  0.9%)
Orbital Orthonormalization  ....       0.000 sec  (  0.0%)
DIIS solution               ....       1.273 sec  (  4.0%)
SOSCF solution              ....       0.918 sec  (  2.9%)
Finished LeanSCF after  32.0 sec

Maximum memory used throughout the entire LEANSCF-calculation: 69.6 MB


           ************************************************************
           *        Program running with 104 parallel MPI-processes   *
           *              working on a common directory               *
           ************************************************************

------------------------------------------------------------------------------
                                ORCA  MP2 
------------------------------------------------------------------------------


-------------
RI-MP2 ENERGY
-------------
Dimension of the orbital basis            ...  406
Dimension of the AuxC basis               ... 1348
Memory devoted to MP2                     ... 4096 MB   
Data format for matrix containers         ... DOUBLE
Compression type for matrix containers    ... UNCOMPRESSED
Scaling for aa/bb pairs                   ...   5.710e-02
Scaling for ab pairs                      ...   5.979e-01
Overall scaling of the MP2 energy         ...   1.000e+00

-----------------------
SHARK RI TRANSFORMATION
-----------------------

Number of basis functions                ...    406
Number of aux functions                  ...   1348
Number of operators                      ...      1
Generation of IJK                        ... NO
Generation of IAK                        ... YES
Generation of ABK                        ... NO
Orbital Range Operator  0:    0-  78 to   79- 405

Aux basis identifier                     ...   AUXC
Contraction scheme used                  ... SEGMENTED
Do orthogonalization                     ... YES
All operator combinations                ... NO
Transpose (ia|K)                         ... NO
Integral generator used                  ... LIBINT
Starting integral generation + trafo... 
Half trafo (segmented) done. Total time =  0.4 sec. integrals=  0.1 sec trafo=  0.0 sec
Integral generation and half transformation done (  0.4 sec)

Reading or making V^(-1/2)          ... done (  0.1 sec)
Sorting IAK integrals               ... done (  1.2 sec)

SHARK RI integral transformation done. Total time =  1.7 sec.

Opening buffers                              ... done

Starting loop over batches of integrals:

Operator 0  - window                       ... (  0- 78)x( 79-405)
Operator 0  - Memory available             ...  4096 MB
Operator 0  - Memory needed per MO         ...   3.4 MB
Operator 0  - Number of orbitals per batch ... 1
Operator 0  - Number of batches            ... 1

OPERATOR  0   PASS   0:  MOs     0 ...    0 +    1 ...    1 +    2 ...    2 +    3 ...    3
                            +    4 ...    4 +    5 ...    5 +    6 ...    6 +    7 ...    7
                            +    8 ...    8 +    9 ...    9 +   10 ...   10 +   11 ...   11
                            +   12 ...   12 +   13 ...   13 +   14 ...   14 +   15 ...   15
                            +   16 ...   16 +   17 ...   17 +   18 ...   18 +   19 ...   19
                            +   20 ...   20 +   21 ...   21 +   22 ...   22 +   23 ...   23
                            +   24 ...   24 +   25 ...   25 +   26 ...   26 +   27 ...   27
                            +   28 ...   28 +   29 ...   29 +   30 ...   30 +   31 ...   31
                            +   32 ...   32 +   33 ...   33 +   34 ...   34 +   35 ...   35
                            +   36 ...   36 +   37 ...   37 +   38 ...   38 +   39 ...   39
                            +   40 ...   40 +   41 ...   41 +   42 ...   42 +   43 ...   43
                            +   44 ...   44 +   45 ...   45 +   46 ...   46 +   47 ...   47
                            +   48 ...   48 +   49 ...   49 +   50 ...   50 +   51 ...   51
                            +   52 ...   52 +   53 ...   53 +   54 ...   54 +   55 ...   55
                            +   56 ...   56 +   57 ...   57 +   58 ...   58 +   59 ...   59
                            +   60 ...   60 +   61 ...   61 +   62 ...   62 +   63 ...   63
                            +   64 ...   64 +   65 ...   65 +   66 ...   66 +   67 ...   67
                            +   68 ...   68 +   69 ...   69 +   70 ...   70 +   71 ...   71
                            +   72 ...   72 +   73 ...   73 +   74 ...   74 +   75 ...   75
                            +   76 ...   76 +   77 ...   77 +   78 ...   78
  Reading integrals       ... ok
Time spent in pair loops =     0.705 sec

-----------------------------------------------
 RI-MP2 CORRELATION ENERGY:     -1.605036946 Eh
-----------------------------------------------


-------
TIMINGS
-------

Total time                :    2.945 sec
Integral trafo            :    1.781 sec ( 60.5%)
K(i,j) operators          :    0.007 sec (  0.3%)
T(i,j) pair energies      :    0.001 sec (  0.0%)
V**(-1/2)                 :    0.456 sec ( 15.5%)


---------------------------------------
MP2 TOTAL ENERGY:     -920.168097938 Eh
---------------------------------------

Maximum memory used throughout the entire MP2-calculation: 39.4 MB


-------------------------------------------------------------------------------
                          DFT DISPERSION CORRECTION                            
                                                                               
                                DFTD4 V3.4.0                                   
-------------------------------------------------------------------------------
The REV-DSD-PBEP86-2021 functional is recognized
A user input s6-coefficient scaling factor has been recognized
A user input a1-coefficient scaling factor has been recognized
A user input s8-coefficient scaling factor has been recognized
A user input a2-coefficient scaling factor has been recognized
A user input s9-coefficient scaling factor has been recognized
Active option DFTDOPT                   ...         5   

-------------------------   ----------------
Dispersion correction           -0.038128195
-------------------------   ----------------


-------------------------   --------------------
FINAL SINGLE POINT ENERGY      -920.206226132984
-------------------------   --------------------



           ************************************************************
           *        Program running with 104 parallel MPI-processes   *
           *              working on a common directory               *
           ************************************************************

------------------------------------------------------------------------------
                              ORCA PROPERTY CALCULATIONS
------------------------------------------------------------------------------

GBWName                                 ... hc_c24h14_0pent_7_dz_ri.gbw
Number of atoms                         ...     38
Number of basis functions               ...    406
Max core memory                         ...   1024 MB

Electric properties:
Dipole moment                           ... YES
Quadrupole moment                       ...  NO
Static polarizability (Dipole/Dipole)   ...  NO
Static polarizability (Dipole/Quad.)    ...  NO
Static polarizability (Quad./Quad.)     ...  NO
Static polarizability (Velocity)        ...  NO

Atomic electric properties:
Dipole moment                           ...  NO
Quadrupole moment                       ...  NO
Static polarizability                   ...  NO

Choice of electric origin               ... Center of mass
Position of electric origin             ...    -0.012311     0.111143    -0.000181

General magnetic properties:
Magnetizability                         ...  NO

EPR properties:
g-Tensor (aka g-matrix)                 ...  NO
Zero-Field splitting spin-orbit         ...  NO
Zero-field splitting spin-spin          ...  NO
Hyperfine couplings                     ...  NO (   0 nuclei)
Quadrupole couplings                    ...  NO (   0 nuclei)
Contact density                         ...  NO (   0 nuclei)

NMR properties:
Chemical shifts                         ...  NO (   0 nuclei)
Spin-rotation constants                 ...  NO (   0 nuclei)
Spin-spin couplings                     ...  NO (   0 nuclei,    0 pairs)

Choice of magnetic origin               ... GIAO
Position of magnetic origin             ...     0.000000     0.000000     0.000000

Properties with geometric perturbations:
SCF Hessian                             ...  NO
IR spectrum                             ...  NO
VCD spectrum                            ...  NO
X-ray spectroscopy properties:
SCF XES/XAS/RIXS spectra                ...  NO


-------------
DIPOLE MOMENT
-------------

Method             : SCF
Type of density    : Electron Density
Multiplicity       :   1
Irrep              :   0
Energy             :  -918.5630609924877490 Eh
Relativity type    : 
Basis              : AO
                                X                 Y                 Z
Electronic contribution:     -0.260031511       2.273774126      -0.004831739
Nuclear contribution   :      0.255587691      -2.287844453       0.004760016
                        -----------------------------------------
Total Dipole Moment    :     -0.004443820      -0.014070327      -0.000071723
                        -----------------------------------------
Magnitude (a.u.)       :      0.014755567
Magnitude (Debye)      :      0.037505672



--------------------
Rotational spectrum 
--------------------
 
Rotational constants in cm-1:             0.023590             0.004879             0.004043 
Rotational constants in MHz :           707.217227           146.281136           121.211730 

Dipole components along the rotational axes: 
x,y,z [a.u.] :    -0.011994     0.008594    -0.000026 
x,y,z [Debye]:    -0.030487     0.021845    -0.000066 

 

Dipole moment calculation done in   0.1 sec 

Maximum memory used throughout the entire PROP-calculation: 24.0 MB

--------------------------------
SUGGESTED CITATIONS FOR THIS RUN
--------------------------------

Below you find a list of papers that are relevant to this ORCA run
We neither can nor want to force you to cite these papers, but we appreciate if you do
You receive ORCA, which is the product of decades of hard work by many enthusiastic individuals, for free
The only thing we kindly ask in return is that you cite our papers,
We deeply appreciate it, if you show your appreciation for ORCA by not just citing the generic ORCA reference.

Please note that relegating all ORCA citations to the supporting information does *not* help us.
SI sections are not indexed - citations you put there will not count into any citation statistics
But we need these citations in order to attract the funding resources that allow us to do what we are doing

Therefore, if you are a happy ORCA user, please consider citing a few of the papers listed below in the main body of your paper

In addition to the list printed below, the program has created the file hc_c24h14_0pent_7_dz_ri.bibtex that contains the list in bibtex format
You can import this file easily into all common literature databanks and citation aid programs


List of essential papers. We consider these as the minimum necessary citations

  1. Neese,F.
     Software update: the ORCA program system, version 5.0
     WIRES Comput. Molec. Sci., 2022 12(1)e1606
     doi.org/10.1002/wcms.1606

List of papers to cite with high priority. The work reported in these papers was absolutely
necessary for this run to complete.
Our perspective: the developers of density functionals and basis sets usually get cited in chemistry papers
Good! But without the algorithms to do something with them, the functionals or basis sets would not do anything.
Hence, in our opinion, the algorithm design and method developments papers are equally worthy of getting cited

  1. Neese,F.
     An improvement of the resolution of the identity approximation for the formation of the Coulomb matrix
     J. Comp. Chem., 2003 24(14)1740-1747
     doi.org/10.1002/jcc.10318
  2. Neese,F.; Wennmohs,F.; Hansen,A.; Becker,U.
     Efficient, approximate and parallel Hartree-Fock and hybrid DFT calculations. A 'chain-of-spheres' algorithm for the Hartree-Fock exchange
     Chem. Phys., 2009 356(1-3)98-109
     doi.org/10.1016/j.chemphys.2008.10.036
  3. Kossmann,S.; Neese,F.
     Efficient Structure Optimization with Second-Order Many-Body Perturbation Theory: The RIJCOSX-MP2 Method
     J. Theo. Comp. Chem., 2010 6 2325-2338
     doi.org/10.1021/ct100199k
  4. Helmich-Paris,B.; de Souza,B.; Neese,F.; Izsák,R.
     An improved chain of spheres for exchange algorithm
     J. Chem. Phys., 2021 155 104109
     doi.org/doi: 10.1063/5.0058766.
  5. Neese,F.
     The SHARK Integral Generation and Digestion System
     J. Comp. Chem., 2022  1-16
     doi.org/10.1002/jcc.26942
  6. Caldeweyher,E.; Bannwarth,C.; Grimme,S.
     Extension of the D3 dispersion coefficient model
     J. Chem. Phys., 2017 147 034112
     doi.org/10.1063/1.4993215
  7. Caldeweyher,E.; Ehlert,S.; Hansen,A.; Neugebauer,H.; Spicher,S.; Bannwarth,C.; Grimme,S.
     A generally applicable atomic-charge dependent London dispersion correction
     J. Chem. Phys., 2019 150 154122
     doi.org/10.1063/1.5090222
  8. Caldeweyher,E.; Mewes,J.; Ehlert,S.; Grimme,S.
     Extension and evaluation of the D4 London-dispersion model for periodic systems
     Phys. Chem. Chem. Phys., 2020 22(16)8499-8512
     doi.org/10.1039/D0CP00502A
  9. Wittmann,L.; Gordiy,I.; Friede,M.; Helmich-Paris,B.; Grimme,S.; Hansen,A.; Bursch,M.
     Extension of the D3 and D4 London Dispersion Corrections to the full Actinides Series
     Phys. Chem. Chem. Phys., 2024 26(32)21379-21394
     doi.org/https://doi.org/10.1039/D4CP01514B 

List of suggested additional citations. These are papers that are important in the 'surrounding' of 
of this run, or papers that preceded the highly important papers. If you like your results we are grateful for a citation.

  1. Izsak,R.; Neese,F.
     An overlap fitted chain of spheres exchange method
     J. Chem. Phys., 2011 135 144105
     doi.org/10.1063/1.3646921
  2. Izsak,R.; Hansen,A.; Neese,F.
     The resolution of identity and chain of spheres approximations for the LPNO-CCSD singles Fock term
     Molec. Phys., 2012 110 2413-2417
     doi.org/10.1080/00268976.2012.687466
  3. Neese,F.
     The ORCA program system
     WIRES Comput. Molec. Sci., 2012 2(1)73-78
     doi.org/10.1002/wcms.81
  4. Izsak,R.; Neese,F.; Klopper,W.
     Robust fitting techniques in the chain of spheres approximation to the Fock exchange: The role of the complementary space
     J. Chem. Phys., 2013 139 
     doi.org/10.1063/1.4819264
  5. Neese,F.
     Software update: the ORCA program system, version 4.0
     WIRES Comput. Molec. Sci., 2018 8(1)1-6
     doi.org/10.1002/wcms.1327
  6. Neese,F.; Wennmohs,F.; Becker,U.; Riplinger,C.
     The ORCA quantum chemistry program package
     J. Chem. Phys., 2020 152 Art. No. L224108
     doi.org/10.1063/5.0004608

List of optional additional citations

  1. Neese,F.
     Approximate second-order SCF convergence for spin unrestricted wavefunctions
     Chem. Phys. Lett., 2000 325(1-3)93-98
     doi.org/10.1016/s0009-2614(00)00662-x

Timings for individual modules:

Sum of individual times          ...      105.423 sec (=   1.757 min)
Startup calculation              ...       21.928 sec (=   0.365 min)  20.8 %
SCF iterations                   ...       49.593 sec (=   0.827 min)  47.0 %
Property calculations            ...       15.732 sec (=   0.262 min)  14.9 %
MP2 module                       ...       18.171 sec (=   0.303 min)  17.2 %
                             ****ORCA TERMINATED NORMALLY****
TOTAL RUN TIME: 0 days 0 hours 2 minutes 11 seconds 260 msec
