
                                 *****************
                                 * O   R   C   A *
                                 *****************

                                            #,                                       
                                            ###                                      
                                            ####                                     
                                            #####                                    
                                            ######                                   
                                           ########,                                 
                                     ,,################,,,,,                         
                               ,,#################################,,                 
                          ,,##########################################,,             
                       ,#########################################, ''#####,          
                    ,#############################################,,   '####,        
                  ,##################################################,,,,####,       
                ,###########''''           ''''###############################       
              ,#####''   ,,,,##########,,,,          '''####'''          '####       
            ,##' ,,,,###########################,,,                        '##       
           ' ,,###''''                  '''############,,,                           
         ,,##''                                '''############,,,,        ,,,,,,###''
      ,#''                                            '''#######################'''  
     '                                                          ''''####''''         
             ,#######,   #######,   ,#######,      ##                                
            ,#'     '#,  ##    ##  ,#'     '#,    #''#        ,####,   ,####,        
            ##       ##  ##   ,#'  ##            #'  '#       #'       #'  '#        
            ##       ##  #######   ##           ,######,      #####,   #    #        
            '#,     ,#'  ##    ##  '#,     ,#' ,#      #,     #,   #   #,  ,#        
             '#######'   ##     ##  '#######'  #'      '#     '####' # '####'        



                #########################################################
                #                        -***-                          #
                #          Department of theory and spectroscopy        #
                #                                                       #
                #                      Frank Neese                      #
                #                                                       #
                #     Directorship, Architecture, Infrastructure        #
                #                    SHARK, DRIVERS                     #
                #        Core code/Algorithms in most modules           #
                #                                                       #
                #        Max Planck Institute fuer Kohlenforschung      #
                #                Kaiser Wilhelm Platz 1                 #
                #                 D-45470 Muelheim/Ruhr                 #
                #                      Germany                          #
                #                                                       #
                #                  All rights reserved                  #
                #                        -***-                          #
                #########################################################


                         Program Version 6.0.1  -  RELEASE   -


 With contributions from (in alphabetic order):
[Max-Planck-Institut fuer Kohlenforschung]                               
  Daniel Aravena         : Magnetic Suceptibility                        
  Michael Atanasov       : Ab Initio Ligand Field Theory (pilot matlab implementation)
  Alexander A. Auer      : GIAO ZORA, VPT2 properties, NMR spectrum      
  Ute Becker             : All parallelization in ORCA, NUMFREQ, NUMCALC 
  Giovanni Bistoni       : ED, misc. LED, open-shell LED, HFLD           
  Martin Brehm           : Molecular dynamics                            
  Dmytro Bykov           : pre 5.0 version of the SCF Hessian            
  Marcos Casanova-Páez   : Triplet and SCS-CIS(D). UHF-(DLPNO)-IP/EA/STEOM-CCSD. UHF-CVS-IP/STEOM-CCSD   
  Vijay G. Chilkuri      : MRCI spin determinant printing, contributions to CSF-ICE 
  Pauline Colinet        : FMM embedding                                 
  Dipayan Datta          : RHF DLPNO-CCSD density                        
  Achintya Kumar Dutta   : EOM-CC, STEOM-CC                              
  Nicolas Foglia         : Exact transition moments, OPA infrastructure, MCD improvements    
  Dmitry Ganyushin       : Spin-Orbit,Spin-Spin,Magnetic field MRCI      
  Miquel Garcia-Rates    : C-PCM and meta-GGA Hessian, CCSD/C-PCM, Gaussian charge scheme 
  Tiago L. C. Gouveia    : GS-ROHF, GS-ROCIS                             
  Yang Guo               : DLPNO-NEVPT2, F12-NEVPT2, CIM, IAO-localization        
  Andreas Hansen         : Spin unrestricted coupled pair/coupled cluster methods 
  Ingolf Harden          : AUTO-CI MPn and infrastructure                
  Benjamin Helmich-Paris : MC-RPA, TRAH-(SCF,CASSCF), AVAS, COSX integrals, SCF dyn. polar. 
  Lee Huntington         : MR-EOM, pCC                                   
  Robert Izsak           : Overlap fitted RIJCOSX, COSX-SCS-MP3, EOM     
  Riya Kayal             : Wick's Theorem for AUTO-CI, AUTO-CI UHF-CCSDT 
  Emily Kempfer          : AUTO-CI, RHF CISDT and CCSDT                  
  Christian Kollmar      : KDIIS, OOCD, Brueckner-CCSD(T), CCSD density, CASPT2, CASPT2-K, improved NEVPT2 
  Axel Koslowski         : Symmetry handling                             
  Simone Kossmann        : meta-GGA functionals, TD-DFT gradient, OOMP2, (MP2 Hessian; deprecated post 5.0) 
  Lucas Lang             : DCDCAS                                        
  Marvin Lechner         : AUTO-CI (C++ implementation), FIC-MRCC        
  Spencer Leger          : CASSCF response                               
  Dagmar Lenk            : GEPOL surface, SMD, ORCA-2-JSON               
  Dimitrios Liakos       : Extrapolation schemes; Compound Job, initial MDCI parallelization 
  Dimitrios Manganas     : Further ROCIS development; embedding schemes. LFT, Crystal Embedding 
  Dimitrios Pantazis     : SARC Basis sets                               
  Anastasios Papadopoulos: AUTO-CI, single reference methods and gradients 
  Taras Petrenko         : pre 6.0 DFT Hessian and TD-DFT gradient, (ASA, deprecated), ECA, 1-Electron XAS/XES, NRVS 
  Peter Pinski           : DLPNO-MP2, DLPNO-MP2 Gradient                 
  Christoph Reimann      : Effective Core Potentials                     
  Marius Retegan         : Local ZFS, SOC                                
  Christoph Riplinger    : Optimizer, TS searches, QM/MM, DLPNO-CCSD(T), (RO)-DLPNO pert. Triples 
  Michael Roemelt        : Original ROCIS implementation                 
  Masaaki Saitow         : Open-shell DLPNO-CCSD energy and density      
  Barbara Sandhoefer     : DKH picture change effects                    
  Kantharuban Sivalingam : CASSCF convergence/infrastructure, NEVPT2 and variants, FIC-MRCI 
  Bernardo de Souza      : ESD, SOC TD-DFT                               
  Georgi L. Stoychev     : AutoAux, RI-MP2 NMR, DLPNO-MP2 response, X2C  
  Van Anh Tran           : RI-MP2 g-tensors                              
  Willem Van den Heuvel  : Paramagnetic NMR                              
  Zikuan Wang            : NOTCH, Electric field optimization            
  Frank Wennmohs         : Technical directorship and infrastructure     
  Hang Xu                : AUTO-CI-Response properties                   
                                                                         
[FACCTs GmbH]                                                            
  Markus Bursch, Miquel Garcia-Rates, Christoph Riplinger, Bernardo de Souza, Georgi L. Stoychev 
                                                                 
  APM, Basis sets (HGBS, AHGBS, def-TZVP (Ac-Lr), def2-XVPD (La-Lu)), CI-OPT, improved COSX, DLPNO-Multilevel,           
  DOCKER, DRACO, updates on ESD, GOAT, IRC, LR-CPCM, MBIS, meta-GGA TD-DFT gradient, ML-optimized integration grids, 
  MM, NACMEs, nearIR, NEB, NEB-TS, NL-DFT gradient (VV10), 2- and 3-layer-ONIOM, interface openCOSMO-RS, QMMM,   
  Crystal-QMMM, SF, symmetry and pop. for TD-DFT, r2SCAN hybrids, SOLVATOR                                   
                                                                         
[Other institutions]                                                     
  V. Asgeirsson          : NEB                                           
  Christoph Bannwarth    : sTDA-DFT, sTD-DFT, PBEh-3c, B97-3c, D3        
  Sebastian Ehlert       : rSCAN, r2SCAN, r2SCAN-3c, D4, dhf basis sets  
  Marvin Friede          : D4 for Fr, Ra, Ac-Lr                          
  Lars Goerigk           : TD-DFT with DH, B97 family of functionals     
  Stefan Grimme          : VdW corrections, initial TS optimization, DFT functionals, gCP, sTDA/sTD-DF 
  Waldemar Hujo          : DFT-NL                                        
  H. Jonsson             : NEB                                           
  Holger Kruse           : gCP                                           
  Marcel Mueller         : wB97X-3c, vDZP basis set                      
  Hagen Neugebauer       : wr2SCAN                                       
  Tobias Risthaus        : range-separated hybrid DFT                    
  Lukas Wittmann         : regularized MP2, r2SCAN double-hybrids, wr2SCAN        
                                                                         
We gratefully acknowledge several colleagues who have allowed us to      
interface, adapt or use parts of their codes:                            
  Ed Valeev, F. Pavosevic, A. Kumar             : LibInt (2-el integral package), F12 methods 
  Garnet Chan, S. Sharma, J. Yang, R. Olivares  : DMRG                   
  Ulf Ekstrom                                   : XCFun DFT Library      
  Mihaly Kallay                                 : mrcc  (arbitrary order and MRCC methods)
  Frank Weinhold                                : gennbo (NPA and NBO analysis)           
  Simon Mueller                                 : openCOSMO-RS                            
  Christopher J. Cramer and Donald G. Truhlar   : smd solvation model                     
  S Lehtola, MJT Oliveira, MAL Marques          : LibXC Library                           
  Liviu Ungur et al                             : ANISO software                          


 Your calculation uses the libint2 library for the computation of 2-el integrals
 For citations please refer to: http://libint.valeyev.net

 Your ORCA version has been built with support for libXC version: 6.2.2
 For citations please refer to: https://libxc.gitlab.io

 This ORCA versions uses:
   CBLAS   interface :  Fast vector & matrix operations
   LAPACKE interface :  Fast linear algebra routines
   SCALAPACK package :  Parallel linear algebra routines
   Shared memory     :  Shared parallel matrices
   BLAS/LAPACK       :  OpenBLAS 0.3.27  USE64BITINT DYNAMIC_ARCH NO_AFFINITY SapphireRapids SINGLE_THREADED
        Core in use  :  SapphireRapids
   Copyright (c) 2011-2014, The OpenBLAS Project




***************************************
The coordinates will be read from file: /scratch/kx58/rs2200/dhdft/inputs/compas3x-xyzs/hc_c24h14_0pent_4.xyz
***************************************


Your calculation utilizes the atom-pairwise dispersion correction
based on EEQ partial charges (D4)


Warning: RI is on but no J-basis has been assigned. Assigning Def2/J (nothing to worry about!)
================================================================================

----- Orbital basis set information -----
Your calculation utilizes the basis: def2-SVP
   F. Weigend and R. Ahlrichs, Phys. Chem. Chem. Phys. 7, 3297 (2005).

----- AuxJ basis set information -----
Your calculation utilizes the auxiliary basis: def2/J
   F. Weigend, Phys. Chem. Chem. Phys. 8, 1057 (2006).

----- AuxC basis set information -----
Your calculation utilizes the auxiliary basis: def2-SVP/C
  H-La, Hf-Rn : A. Hellweg, C. Hattig, S. Hofener and W. Klopper, Theor. Chem. Acc. 117, 587 (2007).
        Ce-Lu : J. Chmela and M. E. Harding, Mol. Phys. (2018).

================================================================================
                                        WARNINGS
                       Please study these warnings very carefully!
================================================================================


WARNING: No MP2 level density has been requested!
         To calculate MP2 level properties use
         %mp2 Density relaxed end
         or
         %mp2 Density unrelaxed end
         Otherwise for double-hybrid DFT only the energy is correct!

================================================================================
                                       INPUT FILE
================================================================================
NAME = hc_c24h14_0pent_4_dz_ri.inp
|  1> ! RKS revDSD-PBEP86-D4/2021 defgrid3  NOPOP NoFrozencore NoUseSym
|  2> 
|  3> %basis
|  4>   Basis "def2-SVP"
|  5>   
|  6>   AuxC "def2-SVP/C"
|  7> end
|  8> 
|  9> %method
| 10>   ScalHFX 0.69
| 11>   ScalDFX 0.31
| 12>   ScalDFC 0.4038
| 13>   ScalLDAC 0.4038
| 14> 
| 15>   D4S6 0.4612
| 16>   D4S8 0.0
| 17>   D4A1 0.44
| 18>   D4A2 3.60
| 19> end
| 20> 
| 21> %mp2
| 22>   PS 0.5979
| 23>   PT 0.0571
| 24> end
| 25> 
| 26> %pal
| 27>     nprocs 104
| 28> end
| 29> 
| 30> *XYZFILE 0 1 /scratch/kx58/rs2200/dhdft/inputs/compas3x-xyzs/hc_c24h14_0pent_4.xyz
| 31> 
| 32>                          ****END OF INPUT****
================================================================================

                       ****************************
                       * Single Point Calculation *
                       ****************************

---------------------------------
CARTESIAN COORDINATES (ANGSTROEM)
---------------------------------
  C      1.418271   -0.749295    0.003013
  C      0.656920   -1.942740    0.000970
  C     -0.768644   -1.901287    0.002211
  C     -1.459358   -0.665620    0.005918
  C     -0.698352    0.575902    0.003711
  C      0.730688    0.534347    0.001654
  C      2.805864   -0.852109    0.006004
  C      3.445751   -2.082574    0.004846
  C      2.713666   -3.246132    0.000593
  C      1.316369   -3.196316   -0.000944
  C      0.547756   -4.395314   -0.003874
  C     -0.802182   -4.356061   -0.002937
  C     -1.499821   -3.114427    0.001174
  C     -2.897648   -3.082969    0.004766
  C     -3.560879   -1.878840    0.010184
  C     -2.850575   -0.687635    0.010763
  C     -1.326343    1.808004    0.001899
  C     -0.621951    3.017747   -0.002106
  C      0.796297    2.976503   -0.005015
  C      1.429208    1.727871   -0.003076
  C     -1.270779    4.272996   -0.004043
  C     -0.545859    5.429246   -0.008816
  C      0.860446    5.388349   -0.011959
  C      1.516960    4.191924   -0.010080
  H      3.421618    0.032474    0.009744
  H      4.525525   -2.119697    0.007264
  H      3.206691   -4.207573   -0.000910
  H      1.076962   -5.337745   -0.006451
  H     -1.385258   -5.266149   -0.004766
  H     -3.445707   -4.014138    0.003841
  H     -4.640983   -1.853158    0.013962
  H     -3.413885    0.231231    0.015330
  H     -2.402927    1.874996    0.002869
  H      2.507861    1.732183   -0.006202
  H     -2.351434    4.299547   -0.001813
  H     -1.045312    6.387185   -0.010458
  H      1.414712    6.315643   -0.015883
  H      2.597332    4.155630   -0.012384

----------------------------
CARTESIAN COORDINATES (A.U.)
----------------------------
  NO LB      ZA    FRAG     MASS         X           Y           Z
   0 C     6.0000    0    12.011    2.680145   -1.415962    0.005694
   1 C     6.0000    0    12.011    1.241399   -3.671246    0.001833
   2 C     6.0000    0    12.011   -1.452527   -3.592912    0.004178
   3 C     6.0000    0    12.011   -2.757786   -1.257839    0.011183
   4 C     6.0000    0    12.011   -1.319693    1.088298    0.007014
   5 C     6.0000    0    12.011    1.380801    1.009770    0.003126
   6 C     6.0000    0    12.011    5.302315   -1.610252    0.011346
   7 C     6.0000    0    12.011    6.511525   -3.935495    0.009157
   8 C     6.0000    0    12.011    5.128085   -6.134301    0.001121
   9 C     6.0000    0    12.011    2.487577   -6.040161   -0.001784
  10 C     6.0000    0    12.011    1.035110   -8.305941   -0.007321
  11 C     6.0000    0    12.011   -1.515904   -8.231762   -0.005550
  12 C     6.0000    0    12.011   -2.834252   -5.885413    0.002218
  13 C     6.0000    0    12.011   -5.475761   -5.825968    0.009007
  14 C     6.0000    0    12.011   -6.729087   -3.550492    0.019244
  15 C     6.0000    0    12.011   -5.386806   -1.299441    0.020340
  16 C     6.0000    0    12.011   -2.506425    3.416631    0.003589
  17 C     6.0000    0    12.011   -1.175318    5.702715   -0.003980
  18 C     6.0000    0    12.011    1.504783    5.624775   -0.009476
  19 C     6.0000    0    12.011    2.700811    3.265202   -0.005812
  20 C     6.0000    0    12.011   -2.401423    8.074791   -0.007641
  21 C     6.0000    0    12.011   -1.031525   10.259789   -0.016660
  22 C     6.0000    0    12.011    1.626007   10.182503   -0.022599
  23 C     6.0000    0    12.011    2.866639    7.921588   -0.019048
  24 H     1.0000    0     1.008    6.465920    0.061368    0.018413
  25 H     1.0000    0     1.008    8.552003   -4.005646    0.013728
  26 H     1.0000    0     1.008    6.059768   -7.951161   -0.001719
  27 H     1.0000    0     1.008    2.035164  -10.086877   -0.012191
  28 H     1.0000    0     1.008   -2.617759   -9.951579   -0.009007
  29 H     1.0000    0     1.008   -6.511443   -7.585621    0.007259
  30 H     1.0000    0     1.008   -8.770186   -3.501961    0.026384
  31 H     1.0000    0     1.008   -6.451308    0.436963    0.028969
  32 H     1.0000    0     1.008   -4.540873    3.543228    0.005422
  33 H     1.0000    0     1.008    4.739170    3.273351   -0.011720
  34 H     1.0000    0     1.008   -4.443566    8.124967   -0.003426
  35 H     1.0000    0     1.008   -1.975354   12.070030   -0.019762
  36 H     1.0000    0     1.008    2.673418   11.934837   -0.030015
  37 H     1.0000    0     1.008    4.908246    7.853003   -0.023402

--------------------------------
INTERNAL COORDINATES (ANGSTROEM)
--------------------------------
 C      0   0   0     0.000000000000     0.00000000     0.00000000
 C      1   0   0     1.415616784185     0.00000000     0.00000000
 C      2   1   0     1.426167481033   120.86988066     0.00000000
 C      3   2   1     1.415617378735   120.86992744     0.00000000
 C      4   3   2     1.456197797295   119.28855477     0.21527979
 C      5   4   3     1.429645288449   119.84116457   359.82455935
 C      1   2   3     1.391400034809   118.29810591   179.79711098
 C      7   1   2     1.386903486720   121.71342843     0.10480621
 C      8   7   1     1.374712137031   120.34675117     0.00000000
 C      9   8   7     1.398185045990   120.13538730   359.92164785
 C     10   9   8     1.424209511901   120.61991553   180.06866157
 C     11  10   9     1.350509021620   120.99595201   179.87938308
 C      3   2   1     1.416449349715   119.41233338   180.04985075
 C     13   3   2     1.398184988656   119.78854775   179.88722900
 C     14  13   3     1.374712045491   120.13535919   359.95701468
 C     15  14  13     1.386903503006   120.34676717     0.06528305
 C      5   4   3     1.382913437256   121.48579056   179.74442701
 C     17   5   4     1.399879566424   122.78176233   180.09084855
 C     18  17   5     1.418850839852   118.54520178     0.02821287
 C      6   5   4     1.382913286325   118.67314155   179.87452546
 C     18  17   5     1.413021421750   122.45526913   179.99489859
 C     21  18  17     1.364714770143   120.58009824   180.04197785
 C     22  21  18     1.406903231337   120.42037432     0.00000000
 C     23  22  21     1.364714766799   120.42036323     0.00000000
 H      7   1   2     1.077800391450   120.60417172   180.13052723
 H      8   7   1     1.080415214975   119.44486501   179.99994186
 H      9   8   7     1.080483611216   120.67421097   179.96418677
 H     11  10   9     1.080852312812   118.02281109   359.90458509
 H     12  11  10     1.080852334886   120.98121901   180.02443265
 H     14  13   3     1.080483616673   119.19040318   179.99421380
 H     15  14  13     1.080415313132   120.20838569   180.06122500
 H     16  15  14     1.077800305472   117.68225872   180.01394807
 H     17   5   4     1.078666323008   120.56815434     0.04835625
 H     20   6   5     1.078666427895   120.56804952   180.09029300
 H     21  18  17     1.080983964446   118.74125503     0.03354863
 H     22  21  18     1.080324763241   120.37740384   179.98935004
 H     23  22  21     1.080324952798   119.20222808   179.99031627
 H     24  23  22     1.080984005091   120.67866003   180.00596943

---------------------------
INTERNAL COORDINATES (A.U.)
---------------------------
 C      0   0   0     0.000000000000     0.00000000     0.00000000
 C      1   0   0     2.675128032692     0.00000000     0.00000000
 C      2   1   0     2.695065960257   120.86988066     0.00000000
 C      3   2   1     2.675129156229   120.86992744     0.00000000
 C      4   3   2     2.751815033708   119.28855477     0.21527979
 C      5   4   3     2.701638063820   119.84116457   359.82455935
 C      1   2   3     2.629365008517   118.29810591   179.79711098
 C      7   1   2     2.620867764081   121.71342843     0.10480621
 C      8   7   1     2.597829451967   120.34675117     0.00000000
 C      9   8   7     2.642186821464   120.13538730   359.92164785
 C     10   9   8     2.691365934819   120.61991553   180.06866157
 C     11  10   9     2.552092192251   120.99595201   179.87938308
 C      3   2   1     2.676701353532   119.41233338   180.04985075
 C     13   3   2     2.642186713120   119.78854775   179.88722900
 C     14  13   3     2.597829278980   120.13535919   359.95701468
 C     15  14  13     2.620867794856   120.34676717     0.06528305
 C      5   4   3     2.613327663334   121.48579056   179.74442701
 C     17   5   4     2.645389001015   122.78176233   180.09084855
 C     18  17   5     2.681239512205   118.54520178     0.02821287
 C      6   5   4     2.613327378116   118.67314155   179.87452546
 C     18  17   5     2.670223508472   122.45526913   179.99489859
 C     21  18  17     2.578937166487   120.58009824   180.04197785
 C     22  21  18     2.658661804155   120.42037432     0.00000000
 C     23  22  21     2.578937160168   120.42036323     0.00000000
 H      7   1   2     2.036747566873   120.60417172   180.13052723
 H      8   7   1     2.041688867225   119.44486501   179.99994186
 H      9   8   7     2.041818117388   120.67421097   179.96418677
 H     11  10   9     2.042514862430   118.02281109   359.90458509
 H     12  11  10     2.042514904143   120.98121901   180.02443265
 H     14  13   3     2.041818127700   119.19040318   179.99421380
 H     15  14  13     2.041689052714   120.20838569   180.06122500
 H     16  15  14     2.036747404398   117.68225872   180.01394807
 H     17   5   4     2.038383940368   120.56815434     0.04835625
 H     20   6   5     2.038384138577   120.56804952   180.09029300
 H     21  18  17     2.042763647964   118.74125503     0.03354863
 H     22  21  18     2.041517938219   120.37740384   179.98935004
 H     23  22  21     2.041518296430   119.20222808   179.99031627
 H     24  23  22     2.042763724771   120.67866003   180.00596943

---------------------
BASIS SET INFORMATION
---------------------
There are 2 groups of distinct atoms

 Group   1 Type C   : 7s4p1d contracted to 3s2p1d pattern {511/31/1}
 Group   2 Type H   : 4s1p contracted to 2s1p pattern {31/1}

Atom   0C    basis set group =>   1
Atom   1C    basis set group =>   1
Atom   2C    basis set group =>   1
Atom   3C    basis set group =>   1
Atom   4C    basis set group =>   1
Atom   5C    basis set group =>   1
Atom   6C    basis set group =>   1
Atom   7C    basis set group =>   1
Atom   8C    basis set group =>   1
Atom   9C    basis set group =>   1
Atom  10C    basis set group =>   1
Atom  11C    basis set group =>   1
Atom  12C    basis set group =>   1
Atom  13C    basis set group =>   1
Atom  14C    basis set group =>   1
Atom  15C    basis set group =>   1
Atom  16C    basis set group =>   1
Atom  17C    basis set group =>   1
Atom  18C    basis set group =>   1
Atom  19C    basis set group =>   1
Atom  20C    basis set group =>   1
Atom  21C    basis set group =>   1
Atom  22C    basis set group =>   1
Atom  23C    basis set group =>   1
Atom  24H    basis set group =>   2
Atom  25H    basis set group =>   2
Atom  26H    basis set group =>   2
Atom  27H    basis set group =>   2
Atom  28H    basis set group =>   2
Atom  29H    basis set group =>   2
Atom  30H    basis set group =>   2
Atom  31H    basis set group =>   2
Atom  32H    basis set group =>   2
Atom  33H    basis set group =>   2
Atom  34H    basis set group =>   2
Atom  35H    basis set group =>   2
Atom  36H    basis set group =>   2
Atom  37H    basis set group =>   2
---------------------------------
AUXILIARY/J BASIS SET INFORMATION
---------------------------------
There are 2 groups of distinct atoms

 Group   1 Type C   : 12s5p4d2f1g contracted to 6s4p3d1f1g pattern {711111/2111/211/2/1}
 Group   2 Type H   : 5s2p1d contracted to 3s1p1d pattern {311/2/1}

Atom   0C    basis set group =>   1
Atom   1C    basis set group =>   1
Atom   2C    basis set group =>   1
Atom   3C    basis set group =>   1
Atom   4C    basis set group =>   1
Atom   5C    basis set group =>   1
Atom   6C    basis set group =>   1
Atom   7C    basis set group =>   1
Atom   8C    basis set group =>   1
Atom   9C    basis set group =>   1
Atom  10C    basis set group =>   1
Atom  11C    basis set group =>   1
Atom  12C    basis set group =>   1
Atom  13C    basis set group =>   1
Atom  14C    basis set group =>   1
Atom  15C    basis set group =>   1
Atom  16C    basis set group =>   1
Atom  17C    basis set group =>   1
Atom  18C    basis set group =>   1
Atom  19C    basis set group =>   1
Atom  20C    basis set group =>   1
Atom  21C    basis set group =>   1
Atom  22C    basis set group =>   1
Atom  23C    basis set group =>   1
Atom  24H    basis set group =>   2
Atom  25H    basis set group =>   2
Atom  26H    basis set group =>   2
Atom  27H    basis set group =>   2
Atom  28H    basis set group =>   2
Atom  29H    basis set group =>   2
Atom  30H    basis set group =>   2
Atom  31H    basis set group =>   2
Atom  32H    basis set group =>   2
Atom  33H    basis set group =>   2
Atom  34H    basis set group =>   2
Atom  35H    basis set group =>   2
Atom  36H    basis set group =>   2
Atom  37H    basis set group =>   2
---------------------------------
AUXILIARY/C BASIS SET INFORMATION
---------------------------------
There are 2 groups of distinct atoms

 Group   1 Type C   : 8s6p5d3f contracted to 6s5p4d1f pattern {311111/21111/2111/3}
 Group   2 Type H   : 4s3p2d contracted to 3s2p1d pattern {211/21/2}

Atom   0C    basis set group =>   1
Atom   1C    basis set group =>   1
Atom   2C    basis set group =>   1
Atom   3C    basis set group =>   1
Atom   4C    basis set group =>   1
Atom   5C    basis set group =>   1
Atom   6C    basis set group =>   1
Atom   7C    basis set group =>   1
Atom   8C    basis set group =>   1
Atom   9C    basis set group =>   1
Atom  10C    basis set group =>   1
Atom  11C    basis set group =>   1
Atom  12C    basis set group =>   1
Atom  13C    basis set group =>   1
Atom  14C    basis set group =>   1
Atom  15C    basis set group =>   1
Atom  16C    basis set group =>   1
Atom  17C    basis set group =>   1
Atom  18C    basis set group =>   1
Atom  19C    basis set group =>   1
Atom  20C    basis set group =>   1
Atom  21C    basis set group =>   1
Atom  22C    basis set group =>   1
Atom  23C    basis set group =>   1
Atom  24H    basis set group =>   2
Atom  25H    basis set group =>   2
Atom  26H    basis set group =>   2
Atom  27H    basis set group =>   2
Atom  28H    basis set group =>   2
Atom  29H    basis set group =>   2
Atom  30H    basis set group =>   2
Atom  31H    basis set group =>   2
Atom  32H    basis set group =>   2
Atom  33H    basis set group =>   2
Atom  34H    basis set group =>   2
Atom  35H    basis set group =>   2
Atom  36H    basis set group =>   2
Atom  37H    basis set group =>   2


           ************************************************************
           *        Program running with 104 parallel MPI-processes   *
           *              working on a common directory               *
           ************************************************************
------------------------------------------------------------------------------
                             ORCA STARTUP CALCULATIONS
                           -- RI-GTO INTEGRALS CHOSEN --
------------------------------------------------------------------------------
------------------------------------------------------------------------------
                   ___                                                        
                  /   \      - P O W E R E D   B Y -                         
                 /     \                                                     
                 |  |  |   _    _      __       _____    __    __             
                 |  |  |  | |  | |    /  \     |  _  \  |  |  /  |          
                  \  \/   | |  | |   /    \    | | | |  |  | /  /          
                 / \  \   | |__| |  /  /\  \   | |_| |  |  |/  /          
                |  |  |   |  __  | /  /__\  \  |    /   |      \           
                |  |  |   | |  | | |   __   |  |    \   |  |\   \          
                \     /   | |  | | |  |  |  |  | |\  \  |  | \   \       
                 \___/    |_|  |_| |__|  |__|  |_| \__\ |__|  \__/        
                                                                              
                      - O R C A' S   B I G   F R I E N D -                    
                                      &                                       
                       - I N T E G R A L  F E E D E R -                       
                                                                              
 v1 FN, 2020, v2 2021, v3 2022-2024                                           
------------------------------------------------------------------------------


----------------------
SHARK INTEGRAL PACKAGE
----------------------

Number of atoms                             ...     38
Number of basis functions                   ...    406
Number of shells                            ...    186
Maximum angular momentum                    ...      2
Integral batch strategy                     ... SHARK/LIBINT Hybrid
RI-J (if used) integral strategy            ... SPLIT-RIJ (Revised 2003 algorithm where possible)
Printlevel                                  ...      1
Contraction scheme used                     ... SEGMENTED contraction
Prescreening option                         ... SCHWARTZ
   Thresh                                   ... 1.000e-10
   Tcut                                     ... 1.000e-11
   Tpresel                                  ... 1.000e-11 
Coulomb Range Separation                    ... NOT USED
Exchange Range Separation                   ... NOT USED
Multipole approximations                    ... NOT USED
Finite Nucleus Model                        ... NOT USED
CABS basis                                  ... NOT available
Auxiliary Coulomb fitting basis             ... AVAILABLE
   # of basis functions in Aux-J            ...   1330
   # of shells in Aux-J                     ...    430
   Maximum angular momentum in Aux-J        ...      4
Auxiliary J/K fitting basis                 ... NOT available
Auxiliary Correlation fitting basis         ... AVAILABLE
   # of basis functions in Aux-C            ...   1348
   # of shells in Aux-C                     ...    468
   Maximum angular momentum in Aux-C        ...      3
Auxiliary 'external' fitting basis          ... NOT available

Checking pre-screening integrals            ... done (  0.0 sec) Dimension = 186
Check shell pair data                       ... done (  0.0 sec)
Shell pair information
Shell pair cut-off parameter TPreSel        ...   1.0e-11
Total number of shell pairs                 ...     17391
Shell pairs after pre-screening             ...     12617
Total number of primitive shell pairs       ...     64615
Primitive shell pairs kept                  ...     29972
          la=0 lb=0:   3677 shell pairs
          la=1 lb=0:   4610 shell pairs
          la=1 lb=1:   1513 shell pairs
          la=2 lb=0:   1600 shell pairs
          la=2 lb=1:   1044 shell pairs
          la=2 lb=2:    173 shell pairs

Calculating one electron integrals          ... done (  0.5 sec)
Calculating RI/J V-Matrix + Cholesky decomp.... done (  0.4 sec)
Calculating RI/C V-Matrix + Cholesky decomp.... done (  0.3 sec)
Calculating Nuclear repulsion               ... done (  0.0 sec) ENN=   1798.030496865987 Eh

Diagonalization of the overlap matrix:
Smallest eigenvalue                        ... 1.059e-04
Time for diagonalization                   ...    0.034 sec
Threshold for overlap eigenvalues          ... 1.000e-07
Number of eigenvalues below threshold      ... 0
Time for construction of square roots      ...    0.012 sec
Total time needed                          ...    0.061 sec

-------------------
DFT GRID GENERATION
-------------------

General Integration Accuracy     IntAcc      ... 4.959
Radial Grid Type                 RadialGrid  ... OptM3 with GC (2021)
Angular Grid (max. ang.)         AngularGrid ... 6 (Lebedev-590)
Angular grid pruning method      GridPruning ... 4 (adaptive)
Weight generation scheme         WeightScheme... mBecke (2022)
Basis function cutoff            BFCut       ... 1.0000e-10
Integration weight cutoff        WCut        ... 1.0000e-14
Partially contracted basis set               ... off
Rotationally invariant grid construction     ... off
Angular grids for H and He will be reduced by one unit

Total number of grid points                  ...   457248
Total number of batches                      ...     7164
Average number of points per batch           ...       63
Average number of grid points per atom       ...    12033

--------------------
COSX GRID GENERATION
--------------------

GRIDX 1
-------
General Integration Accuracy     IntAcc      ... 4.020
Radial Grid Type                 RadialGrid  ... OptM3 with GC (2021)
Angular Grid (max. ang.)         AngularGrid ... 2 (Lebedev-110)
Angular grid pruning method      GridPruning ... 4 (adaptive)
Weight generation scheme         WeightScheme... mBecke (2022)
Basis function cutoff            BFCut       ... 1.0000e-10
Integration weight cutoff        WCut        ... 1.0000e-14
Partially contracted basis set               ... on
Rotationally invariant grid construction     ... off
Angular grids for H and He will be reduced by one unit

Total number of grid points                  ...    52019
Total number of batches                      ...      422
Average number of points per batch           ...      123
Average number of grid points per atom       ...     1369
UseSFitting                                  ... on

GRIDX 2
-------
General Integration Accuracy     IntAcc      ... 4.338
Radial Grid Type                 RadialGrid  ... OptM3 with GC (2021)
Angular Grid (max. ang.)         AngularGrid ... 3 (Lebedev-194)
Angular grid pruning method      GridPruning ... 4 (adaptive)
Weight generation scheme         WeightScheme... mBecke (2022)
Basis function cutoff            BFCut       ... 1.0000e-10
Integration weight cutoff        WCut        ... 1.0000e-14
Partially contracted basis set               ... on
Rotationally invariant grid construction     ... off
Angular grids for H and He will be reduced by one unit

Total number of grid points                  ...   114263
Total number of batches                      ...      912
Average number of points per batch           ...      125
Average number of grid points per atom       ...     3007
UseSFitting                                  ... on

GRIDX 3
-------
General Integration Accuracy     IntAcc      ... 4.871
Radial Grid Type                 RadialGrid  ... OptM3 with GC (2021)
Angular Grid (max. ang.)         AngularGrid ... 4 (Lebedev-302)
Angular grid pruning method      GridPruning ... 4 (adaptive)
Weight generation scheme         WeightScheme... mBecke (2022)
Basis function cutoff            BFCut       ... 1.0000e-10
Integration weight cutoff        WCut        ... 1.0000e-14
Partially contracted basis set               ... on
Rotationally invariant grid construction     ... off
Angular grids for H and He will be reduced by one unit

Total number of grid points                  ...   211063
Total number of batches                      ...     1669
Average number of points per batch           ...      126
Average number of grid points per atom       ...     5554
UseSFitting                                  ... on
Initializing property integral containers    ... done (  0.1 sec)

SHARK setup successfully completed in   7.7 seconds

Maximum memory used throughout the entire STARTUP-calculation: 88.9 MB


           ************************************************************
           *        Program running with 104 parallel MPI-processes   *
           *              working on a common directory               *
           ************************************************************
-------------------------------------------------------------------------------
                                 ORCA GUESS
                   Start orbitals & Density for SCF / CASSCF
-------------------------------------------------------------------------------

------------
SCF SETTINGS
------------
Hamiltonian:
 Density Functional     Method          .... DFT(GTOs)
 Exchange Functional    Exchange        .... PBE
   PBE kappa parameter   XKappa         ....  0.804000
   PBE mue parameter    XMuePBE         ....  0.219520
 Correlation Functional Correlation     .... P86
 LDA part of GGA corr.  LDAOpt          .... VWN-5
 Gradients option       PostSCFGGA      .... off
 Hybrid DFT is turned on
   Fraction HF Exchange ScalHFX         ....  0.690000
   Scaling of DF-GGA-X  ScalDFX         ....  0.310000
   Scaling of DF-GGA-C  ScalDFC         ....  0.403800
   Scaling of DF-LDA-C  ScalLDAC        ....  0.403800
   Perturbative correction              ....  1.000000
 RI-approximation to the Coulomb term is turned on
   Number of AuxJ basis functions       .... 1330
   RIJ-COSX (HFX calculated with COS-X)).... on


General Settings:
 Integral files         IntName         .... hc_c24h14_0pent_4_dz_ri
 Hartree-Fock type      HFTyp           .... RHF
 Total Charge           Charge          ....    0
 Multiplicity           Mult            ....    1
 Number of Electrons    NEL             ....  158
 Basis Dimension        Dim             ....  406
 Nuclear Repulsion      ENuc            ....   1798.0304968660 Eh

Convergence Acceleration:
 AO-DIIS                CNVDIIS         .... on
   Start iteration      DIISMaxIt       ....    12
   Startup error        DIISStart       ....  0.200000
   # of expansion vecs  DIISMaxEq       ....     5
   Bias factor          DIISBfac        ....   1.050
   Max. coefficient     DIISMaxC        ....  10.000
 MO-DIIS                CNVKDIIS        .... off
 Trust-Rad. Augm. Hess. CNVTRAH         .... auto
   Auto Start mean grad. ratio tolernc. ....  1.125000
   Auto Start start iteration           ....    50
   Auto Start num. interpolation iter.  ....    10
   Max. Number of Micro iterations      ....    24
   Max. Number of Macro iterations      .... Maxiter - #DIIS iter
   Number of Davidson start vectors     ....     2
   Converg. threshold    (grad. norm)   ....   5.000e-05
   Grad. Scal. Fac. for Micro threshold ....   0.100
   Minimum threshold for Micro iter.    ....   1.000e-02
   NR start threshold (gradient norm)   ....   1.000e-04
   Initial trust radius                 ....   0.400
   Minimum AH scaling param. (alpha)    ....   1.000
   Maximum AH scaling param. (alpha)    .... 1000.000
   Quad. conv. algorithm                .... NR
   White noise on init. David. guess    .... on
   Maximum white noise                  ....   0.010
   Pseudo random numbers                .... off
   Inactive MOs                         .... canonical
   Orbital update algorithm             .... Taylor
   Preconditioner                       .... Diag
   Full preconditioner red. dimension   ....   250
 SOSCF                  CNVSOSCF        .... on
   Start iteration      SOSCFMaxIt      ....   150
   Startup grad/error   SOSCFStart      ....  0.003300
   Hessian update       SOSCFHessUp     .... L-BFGS
 Level Shifting         CNVShift        .... on
   Level shift para.    LevelShift      ....    0.2500
   Turn off err/grad.   ShiftErr        ....    0.0010
 Zerner damping         CNVZerner       .... off
 Static damping         CNVDamp         .... on
   Fraction old density DampFac         ....    0.7000
   Max. Damping (<1)    DampMax         ....    0.9800
   Min. Damping (>=0)   DampMin         ....    0.0000
   Turn off err/grad.   DampErr         ....    0.1000

SCF Procedure:
 Maximum # iterations   MaxIter         ....   125
 SCF integral mode      SCFMode         .... Direct
   Integral package                     .... SHARK and LIBINT hybrid scheme
 Reset frequency        DirectResetFreq ....    20
 Integral Threshold     Thresh          ....  1.000e-10 Eh
 Primitive CutOff       TCut            ....  1.000e-11 Eh

Convergence Tolerance:
 Convergence Check Mode ConvCheckMode   .... Total+1el-Energy
 Convergence forced     ConvForced      .... 0
 Energy Change          TolE            ....  1.000e-06 Eh
 1-El. energy change                    ....  1.000e-03 Eh
 Orbital Gradient       TolG            ....  5.000e-05
 Orbital Rotation angle TolX            ....  5.000e-05
 DIIS Error             TolErr          ....  1.000e-06

------------------------------
INITIAL GUESS: MODEL POTENTIAL
------------------------------
Loading Hartree-Fock densities                     ... done
Calculating cut-offs                               ... done
Initializing the effective Hamiltonian             ... done
Setting up the integral package (SHARK)            ... done
Starting the Coulomb interaction                   ... done (   0.1 sec)
Making the grid                                    ... done (   1.5 sec)
Mapping shells                                     ... done
Starting the XC term evaluation                    ... done (   1.4 sec)
  promolecular density results
     # of electrons  =    157.980192481
     EX              =   -127.048301716
     EC              =      0.200378939
     EX+EC           =   -126.847922777
Transforming the Hamiltonian                       ... done (   0.0 sec)
Diagonalizing the Hamiltonian                      ... done (   0.0 sec)
Back transforming the eigenvectors                 ... done (   0.0 sec)
Now organizing SCF variables                       ... done
                      ------------------
                      INITIAL GUESS DONE (   3.2 sec)
                      ------------------
             **** ENERGY FILE WAS UPDATED (hc_c24h14_0pent_4_dz_ri.en.tmp) ****
Finished Guess after  17.9 sec
Maximum memory used throughout the entire GUESS-calculation: 30.0 MB


           ************************************************************
           *        Program running with 104 parallel MPI-processes   *
           *              working on a common directory               *
           ************************************************************

-------------------------------------------------------------------------------------------
                                      ORCA LEAN-SCF
                              memory conserving SCF solver
-------------------------------------------------------------------------------------------

----------------------------------------D-I-I-S--------------------------------------------
Iteration    Energy (Eh)           Delta-E    RMSDP     MaxDP     DIISErr   Damp  Time(sec)
-------------------------------------------------------------------------------------------
               ***  Starting incremental Fock matrix formation  ***
    1    -918.1504080813169821     0.00e+00  4.08e-03  1.11e-01  1.19e-01  0.700   1.6
    2    -918.2976026136757355    -1.47e-01  3.09e-03  8.33e-02  7.50e-02  0.700   1.7
                               ***Turning on AO-DIIS***
    3    -918.3861108239680107    -8.85e-02  2.06e-03  5.84e-02  4.56e-02  0.700   1.6
    4    -918.4417216607912451    -5.56e-02  4.84e-03  1.39e-01  3.11e-02  0.000   1.5
                              *** Initializing SOSCF ***
---------------------------------------S-O-S-C-F--------------------------------------
Iteration    Energy (Eh)           Delta-E    RMSDP     MaxDP     MaxGrad    Time(sec)
--------------------------------------------------------------------------------------
    5    -918.5627208756286564    -1.21e-01  1.96e-04  5.15e-03  2.69e-03     1.7
               *** Restarting incremental Fock matrix formation ***
    6    -918.5628223760804758    -1.02e-04  1.01e-04  2.78e-03  1.17e-03     1.6
    7    -918.5628851325086544    -6.28e-05  7.22e-05  1.42e-03  7.17e-04     1.5
    8    -918.5629099945977032    -2.49e-05  2.75e-05  5.85e-04  2.14e-04     1.6
    9    -918.5629130859038014    -3.09e-06  1.01e-05  3.18e-04  6.29e-05     1.7
   10    -918.5629135637227591    -4.78e-07  3.92e-06  1.18e-04  4.04e-05     1.6
                 **** Energy Check signals convergence ****

               *****************************************************
               *                     SUCCESS                       *
               *           SCF CONVERGED AFTER  10 CYCLES          *
               *****************************************************

Recomputing exchange energy using gridx3       ... done (    0.947 sec)
Old exchange energy                            :    -89.356573712 Eh
New exchange energy                            :    -89.356541906 Eh
Exchange energy change after final integration :      0.000031806 Eh
Total energy after final integration           :   -918.562881758 Eh
             **** ENERGY FILE WAS UPDATED (hc_c24h14_0pent_4_dz_ri.en.tmp) ****

----------------
TOTAL SCF ENERGY
----------------

Total Energy       :       -918.56288175810050 Eh          -24995.36675 eV

Components:
Nuclear Repulsion  :       1798.03049686598661 Eh           48926.89722 eV
Electronic Energy  :      -2716.59341042970937 Eh          -73922.26483 eV
One Electron Energy:      -4814.54629913711142 Eh         -131010.46524 eV
Two Electron Energy:       2097.95288870740205 Eh           57088.20041 eV

Virial components:
Potential Energy   :      -1831.01658645857788 Eh          -49824.49435 eV
Kinetic Energy     :        912.45370470047726 Eh           24829.12759 eV
Virial Ratio       :          2.00669532824093

DFT components:
N(Alpha)           :       79.000015140082 electrons
N(Beta)            :       79.000015140082 electrons
N(Total)           :      158.000030280165 electrons
E(X)               :      -39.974772696558 Eh       
E(C)               :       -2.358026722051 Eh       
E(XC)              :      -42.332799418609 Eh       

---------------
SCF CONVERGENCE
---------------

  Last Energy change         ...    4.7782e-07  Tolerance :   1.0000e-06
  Last MAX-Density change    ...    1.1765e-04  Tolerance :   1.0000e-05
  Last RMS-Density change    ...    3.9227e-06  Tolerance :   1.0000e-06
  Last DIIS Error            ...    2.6877e-03  Tolerance :   1.0000e-06
  Last Orbital Gradient      ...    4.0383e-05  Tolerance :   5.0000e-05
  Last Orbital Rotation      ...    1.0773e-04  Tolerance :   5.0000e-05


----------------
ORBITAL ENERGIES
----------------

  NO   OCC          E(Eh)            E(eV) 
   0   2.0000     -10.840787      -294.9928 
   1   2.0000     -10.840157      -294.9757 
   2   2.0000     -10.839365      -294.9541 
   3   2.0000     -10.839341      -294.9535 
   4   2.0000     -10.836738      -294.8826 
   5   2.0000     -10.836090      -294.8650 
   6   2.0000     -10.834685      -294.8268 
   7   2.0000     -10.834648      -294.8258 
   8   2.0000     -10.833699      -294.7999 
   9   2.0000     -10.832975      -294.7802 
  10   2.0000     -10.829598      -294.6884 
  11   2.0000     -10.829544      -294.6869 
  12   2.0000     -10.829489      -294.6854 
  13   2.0000     -10.829341      -294.6814 
  14   2.0000     -10.829273      -294.6795 
  15   2.0000     -10.828493      -294.6583 
  16   2.0000     -10.828479      -294.6579 
  17   2.0000     -10.828452      -294.6572 
  18   2.0000     -10.828389      -294.6555 
  19   2.0000     -10.827781      -294.6389 
  20   2.0000     -10.827761      -294.6384 
  21   2.0000     -10.827740      -294.6378 
  22   2.0000     -10.827102      -294.6204 
  23   2.0000     -10.827095      -294.6202 
  24   2.0000      -1.088773       -29.6270 
  25   2.0000      -1.062913       -28.9233 
  26   2.0000      -1.037386       -28.2287 
  27   2.0000      -1.020335       -27.7647 
  28   2.0000      -0.980449       -26.6794 
  29   2.0000      -0.958516       -26.0825 
  30   2.0000      -0.958285       -26.0763 
  31   2.0000      -0.929335       -25.2885 
  32   2.0000      -0.907967       -24.7070 
  33   2.0000      -0.897595       -24.4248 
  34   2.0000      -0.870560       -23.6892 
  35   2.0000      -0.866050       -23.5664 
  36   2.0000      -0.796643       -21.6778 
  37   2.0000      -0.773127       -21.0378 
  38   2.0000      -0.771687       -20.9987 
  39   2.0000      -0.768605       -20.9148 
  40   2.0000      -0.739383       -20.1196 
  41   2.0000      -0.722077       -19.6487 
  42   2.0000      -0.700082       -19.0502 
  43   2.0000      -0.667374       -18.1602 
  44   2.0000      -0.661548       -18.0016 
  45   2.0000      -0.639349       -17.3976 
  46   2.0000      -0.618272       -16.8240 
  47   2.0000      -0.618032       -16.8175 
  48   2.0000      -0.609127       -16.5752 
  49   2.0000      -0.591280       -16.0895 
  50   2.0000      -0.572531       -15.5794 
  51   2.0000      -0.561705       -15.2848 
  52   2.0000      -0.554586       -15.0910 
  53   2.0000      -0.548508       -14.9257 
  54   2.0000      -0.537845       -14.6355 
  55   2.0000      -0.531122       -14.4526 
  56   2.0000      -0.528007       -14.3678 
  57   2.0000      -0.523161       -14.2359 
  58   2.0000      -0.520829       -14.1725 
  59   2.0000      -0.514326       -13.9955 
  60   2.0000      -0.492375       -13.3982 
  61   2.0000      -0.488415       -13.2905 
  62   2.0000      -0.479316       -13.0428 
  63   2.0000      -0.471962       -12.8427 
  64   2.0000      -0.465603       -12.6697 
  65   2.0000      -0.457625       -12.4526 
  66   2.0000      -0.454052       -12.3554 
  67   2.0000      -0.437298       -11.8995 
  68   2.0000      -0.435697       -11.8559 
  69   2.0000      -0.415982       -11.3194 
  70   2.0000      -0.414266       -11.2728 
  71   2.0000      -0.385384       -10.4868 
  72   2.0000      -0.371033       -10.0963 
  73   2.0000      -0.358881        -9.7656 
  74   2.0000      -0.333575        -9.0770 
  75   2.0000      -0.303642        -8.2625 
  76   2.0000      -0.290424        -7.9028 
  77   2.0000      -0.248641        -6.7659 
  78   2.0000      -0.248046        -6.7497 
  79   0.0000       0.007000         0.1905 
  80   0.0000       0.012361         0.3364 
  81   0.0000       0.047962         1.3051 
  82   0.0000       0.060854         1.6559 
  83   0.0000       0.091059         2.4778 
  84   0.0000       0.127304         3.4641 
  85   0.0000       0.131807         3.5866 
  86   0.0000       0.137152         3.7321 
  87   0.0000       0.138972         3.7816 
  88   0.0000       0.142836         3.8868 
  89   0.0000       0.160557         4.3690 
*Only the first 10 virtual orbitals were printed.
-------
TIMINGS
-------

Total SCF time: 0 days 0 hours 0 min 31 sec 

Total time                  ....      31.890 sec
Sum of individual times     ....      31.691 sec  ( 99.4%)

SCF preparation             ....      14.669 sec  ( 46.0%)
Fock matrix formation       ....      12.817 sec  ( 40.2%)
  Startup                   ....       0.730 sec  (  5.7% of F)
  Split-RI-J                ....       2.017 sec  ( 15.7% of F)
  Chain of spheres X        ....       4.882 sec  ( 38.1% of F)
  XC integration            ....       3.869 sec  ( 30.2% of F)
    XC Preparation          ....       0.000 sec  (  0.0% of XC)
    Basis function eval.    ....       0.282 sec  (  7.3% of XC)
    Density eval.           ....       0.155 sec  (  4.0% of XC)
    XC-Functional eval.     ....       0.044 sec  (  1.1% of XC)
    XC-Potential eval.      ....       0.139 sec  (  3.6% of XC)
Diagonalization             ....       0.000 sec  (  0.0%)
Density matrix formation    ....       1.048 sec  (  3.3%)
Total Energy calculation    ....       0.658 sec  (  2.1%)
Population analysis         ....       0.000 sec  (  0.0%)
Orbital Transformation      ....       0.318 sec  (  1.0%)
Orbital Orthonormalization  ....       0.000 sec  (  0.0%)
DIIS solution               ....       1.288 sec  (  4.0%)
SOSCF solution              ....       0.844 sec  (  2.6%)
Finished LeanSCF after  32.2 sec

Maximum memory used throughout the entire LEANSCF-calculation: 70.2 MB


           ************************************************************
           *        Program running with 104 parallel MPI-processes   *
           *              working on a common directory               *
           ************************************************************

------------------------------------------------------------------------------
                                ORCA  MP2 
------------------------------------------------------------------------------


-------------
RI-MP2 ENERGY
-------------
Dimension of the orbital basis            ...  406
Dimension of the AuxC basis               ... 1348
Memory devoted to MP2                     ... 4096 MB   
Data format for matrix containers         ... DOUBLE
Compression type for matrix containers    ... UNCOMPRESSED
Scaling for aa/bb pairs                   ...   5.710e-02
Scaling for ab pairs                      ...   5.979e-01
Overall scaling of the MP2 energy         ...   1.000e+00

-----------------------
SHARK RI TRANSFORMATION
-----------------------

Number of basis functions                ...    406
Number of aux functions                  ...   1348
Number of operators                      ...      1
Generation of IJK                        ... NO
Generation of IAK                        ... YES
Generation of ABK                        ... NO
Orbital Range Operator  0:    0-  78 to   79- 405

Aux basis identifier                     ...   AUXC
Contraction scheme used                  ... SEGMENTED
Do orthogonalization                     ... YES
All operator combinations                ... NO
Transpose (ia|K)                         ... NO
Integral generator used                  ... LIBINT
Starting integral generation + trafo... 
Half trafo (segmented) done. Total time =  0.4 sec. integrals=  0.1 sec trafo=  0.0 sec
Integral generation and half transformation done (  0.4 sec)

Reading or making V^(-1/2)          ... done (  0.1 sec)
Sorting IAK integrals               ... done (  1.3 sec)

SHARK RI integral transformation done. Total time =  1.7 sec.

Opening buffers                              ... done

Starting loop over batches of integrals:

Operator 0  - window                       ... (  0- 78)x( 79-405)
Operator 0  - Memory available             ...  4096 MB
Operator 0  - Memory needed per MO         ...   3.4 MB
Operator 0  - Number of orbitals per batch ... 1
Operator 0  - Number of batches            ... 1

OPERATOR  0   PASS   0:  MOs     0 ...    0 +    1 ...    1 +    2 ...    2 +    3 ...    3
                            +    4 ...    4 +    5 ...    5 +    6 ...    6 +    7 ...    7
                            +    8 ...    8 +    9 ...    9 +   10 ...   10 +   11 ...   11
                            +   12 ...   12 +   13 ...   13 +   14 ...   14 +   15 ...   15
                            +   16 ...   16 +   17 ...   17 +   18 ...   18 +   19 ...   19
                            +   20 ...   20 +   21 ...   21 +   22 ...   22 +   23 ...   23
                            +   24 ...   24 +   25 ...   25 +   26 ...   26 +   27 ...   27
                            +   28 ...   28 +   29 ...   29 +   30 ...   30 +   31 ...   31
                            +   32 ...   32 +   33 ...   33 +   34 ...   34 +   35 ...   35
                            +   36 ...   36 +   37 ...   37 +   38 ...   38 +   39 ...   39
                            +   40 ...   40 +   41 ...   41 +   42 ...   42 +   43 ...   43
                            +   44 ...   44 +   45 ...   45 +   46 ...   46 +   47 ...   47
                            +   48 ...   48 +   49 ...   49 +   50 ...   50 +   51 ...   51
                            +   52 ...   52 +   53 ...   53 +   54 ...   54 +   55 ...   55
                            +   56 ...   56 +   57 ...   57 +   58 ...   58 +   59 ...   59
                            +   60 ...   60 +   61 ...   61 +   62 ...   62 +   63 ...   63
                            +   64 ...   64 +   65 ...   65 +   66 ...   66 +   67 ...   67
                            +   68 ...   68 +   69 ...   69 +   70 ...   70 +   71 ...   71
                            +   72 ...   72 +   73 ...   73 +   74 ...   74 +   75 ...   75
                            +   76 ...   76 +   77 ...   77 +   78 ...   78
  Reading integrals       ... ok
Time spent in pair loops =     0.729 sec

-----------------------------------------------
 RI-MP2 CORRELATION ENERGY:     -1.604420576 Eh
-----------------------------------------------


-------
TIMINGS
-------

Total time                :    3.019 sec
Integral trafo            :    1.829 sec ( 60.6%)
K(i,j) operators          :    0.007 sec (  0.2%)
T(i,j) pair energies      :    0.001 sec (  0.0%)
V**(-1/2)                 :    0.457 sec ( 15.2%)


---------------------------------------
MP2 TOTAL ENERGY:     -920.167302335 Eh
---------------------------------------

Maximum memory used throughout the entire MP2-calculation: 39.8 MB


-------------------------------------------------------------------------------
                          DFT DISPERSION CORRECTION                            
                                                                               
                                DFTD4 V3.4.0                                   
-------------------------------------------------------------------------------
The REV-DSD-PBEP86-2021 functional is recognized
A user input s6-coefficient scaling factor has been recognized
A user input a1-coefficient scaling factor has been recognized
A user input s8-coefficient scaling factor has been recognized
A user input a2-coefficient scaling factor has been recognized
A user input s9-coefficient scaling factor has been recognized
Active option DFTDOPT                   ...         5   

-------------------------   ----------------
Dispersion correction           -0.038244661
-------------------------   ----------------


-------------------------   --------------------
FINAL SINGLE POINT ENERGY      -920.205546995133
-------------------------   --------------------



           ************************************************************
           *        Program running with 104 parallel MPI-processes   *
           *              working on a common directory               *
           ************************************************************

------------------------------------------------------------------------------
                              ORCA PROPERTY CALCULATIONS
------------------------------------------------------------------------------

GBWName                                 ... hc_c24h14_0pent_4_dz_ri.gbw
Number of atoms                         ...     38
Number of basis functions               ...    406
Max core memory                         ...   1024 MB

Electric properties:
Dipole moment                           ... YES
Quadrupole moment                       ...  NO
Static polarizability (Dipole/Dipole)   ...  NO
Static polarizability (Dipole/Quad.)    ...  NO
Static polarizability (Quad./Quad.)     ...  NO
Static polarizability (Velocity)        ...  NO

Atomic electric properties:
Dipole moment                           ...  NO
Quadrupole moment                       ...  NO
Static polarizability                   ...  NO

Choice of electric origin               ... Center of mass
Position of electric origin             ...    -0.004408    -0.153224     0.000328

General magnetic properties:
Magnetizability                         ...  NO

EPR properties:
g-Tensor (aka g-matrix)                 ...  NO
Zero-Field splitting spin-orbit         ...  NO
Zero-field splitting spin-spin          ...  NO
Hyperfine couplings                     ...  NO (   0 nuclei)
Quadrupole couplings                    ...  NO (   0 nuclei)
Contact density                         ...  NO (   0 nuclei)

NMR properties:
Chemical shifts                         ...  NO (   0 nuclei)
Spin-rotation constants                 ...  NO (   0 nuclei)
Spin-spin couplings                     ...  NO (   0 nuclei,    0 pairs)

Choice of magnetic origin               ... GIAO
Position of magnetic origin             ...     0.000000     0.000000     0.000000

Properties with geometric perturbations:
SCF Hessian                             ...  NO
IR spectrum                             ...  NO
VCD spectrum                            ...  NO
X-ray spectroscopy properties:
SCF XES/XAS/RIXS spectra                ...  NO


-------------
DIPOLE MOMENT
-------------

Method             : SCF
Type of density    : Electron Density
Multiplicity       :   1
Irrep              :   0
Energy             :  -918.5628817581005023 Eh
Relativity type    : 
Basis              : AO
                                X                 Y                 Z
Electronic contribution:     -0.090680306      -3.118653391       0.007501978
Nuclear contribution   :      0.091801670       3.157512057      -0.007771228
                        -----------------------------------------
Total Dipole Moment    :      0.001121364       0.038858666      -0.000269250
                        -----------------------------------------
Magnitude (a.u.)       :      0.038875775
Magnitude (Debye)      :      0.098814366



--------------------
Rotational spectrum 
--------------------
 
Rotational constants in cm-1:             0.016135             0.006013             0.004381 
Rotational constants in MHz :           483.725851           180.279177           131.333315 

Dipole components along the rotational axes: 
x,y,z [a.u.] :     0.038875    -0.000008    -0.000227 
x,y,z [Debye]:     0.098813    -0.000021    -0.000577 

 

Dipole moment calculation done in   0.1 sec 

Maximum memory used throughout the entire PROP-calculation: 24.3 MB

--------------------------------
SUGGESTED CITATIONS FOR THIS RUN
--------------------------------

Below you find a list of papers that are relevant to this ORCA run
We neither can nor want to force you to cite these papers, but we appreciate if you do
You receive ORCA, which is the product of decades of hard work by many enthusiastic individuals, for free
The only thing we kindly ask in return is that you cite our papers,
We deeply appreciate it, if you show your appreciation for ORCA by not just citing the generic ORCA reference.

Please note that relegating all ORCA citations to the supporting information does *not* help us.
SI sections are not indexed - citations you put there will not count into any citation statistics
But we need these citations in order to attract the funding resources that allow us to do what we are doing

Therefore, if you are a happy ORCA user, please consider citing a few of the papers listed below in the main body of your paper

In addition to the list printed below, the program has created the file hc_c24h14_0pent_4_dz_ri.bibtex that contains the list in bibtex format
You can import this file easily into all common literature databanks and citation aid programs


List of essential papers. We consider these as the minimum necessary citations

  1. Neese,F.
     Software update: the ORCA program system, version 5.0
     WIRES Comput. Molec. Sci., 2022 12(1)e1606
     doi.org/10.1002/wcms.1606

List of papers to cite with high priority. The work reported in these papers was absolutely
necessary for this run to complete.
Our perspective: the developers of density functionals and basis sets usually get cited in chemistry papers
Good! But without the algorithms to do something with them, the functionals or basis sets would not do anything.
Hence, in our opinion, the algorithm design and method developments papers are equally worthy of getting cited

  1. Neese,F.
     An improvement of the resolution of the identity approximation for the formation of the Coulomb matrix
     J. Comp. Chem., 2003 24(14)1740-1747
     doi.org/10.1002/jcc.10318
  2. Neese,F.; Wennmohs,F.; Hansen,A.; Becker,U.
     Efficient, approximate and parallel Hartree-Fock and hybrid DFT calculations. A 'chain-of-spheres' algorithm for the Hartree-Fock exchange
     Chem. Phys., 2009 356(1-3)98-109
     doi.org/10.1016/j.chemphys.2008.10.036
  3. Kossmann,S.; Neese,F.
     Efficient Structure Optimization with Second-Order Many-Body Perturbation Theory: The RIJCOSX-MP2 Method
     J. Theo. Comp. Chem., 2010 6 2325-2338
     doi.org/10.1021/ct100199k
  4. Helmich-Paris,B.; de Souza,B.; Neese,F.; Izsák,R.
     An improved chain of spheres for exchange algorithm
     J. Chem. Phys., 2021 155 104109
     doi.org/doi: 10.1063/5.0058766.
  5. Neese,F.
     The SHARK Integral Generation and Digestion System
     J. Comp. Chem., 2022  1-16
     doi.org/10.1002/jcc.26942
  6. Caldeweyher,E.; Bannwarth,C.; Grimme,S.
     Extension of the D3 dispersion coefficient model
     J. Chem. Phys., 2017 147 034112
     doi.org/10.1063/1.4993215
  7. Caldeweyher,E.; Ehlert,S.; Hansen,A.; Neugebauer,H.; Spicher,S.; Bannwarth,C.; Grimme,S.
     A generally applicable atomic-charge dependent London dispersion correction
     J. Chem. Phys., 2019 150 154122
     doi.org/10.1063/1.5090222
  8. Caldeweyher,E.; Mewes,J.; Ehlert,S.; Grimme,S.
     Extension and evaluation of the D4 London-dispersion model for periodic systems
     Phys. Chem. Chem. Phys., 2020 22(16)8499-8512
     doi.org/10.1039/D0CP00502A
  9. Wittmann,L.; Gordiy,I.; Friede,M.; Helmich-Paris,B.; Grimme,S.; Hansen,A.; Bursch,M.
     Extension of the D3 and D4 London Dispersion Corrections to the full Actinides Series
     Phys. Chem. Chem. Phys., 2024 26(32)21379-21394
     doi.org/https://doi.org/10.1039/D4CP01514B 

List of suggested additional citations. These are papers that are important in the 'surrounding' of 
of this run, or papers that preceded the highly important papers. If you like your results we are grateful for a citation.

  1. Izsak,R.; Neese,F.
     An overlap fitted chain of spheres exchange method
     J. Chem. Phys., 2011 135 144105
     doi.org/10.1063/1.3646921
  2. Izsak,R.; Hansen,A.; Neese,F.
     The resolution of identity and chain of spheres approximations for the LPNO-CCSD singles Fock term
     Molec. Phys., 2012 110 2413-2417
     doi.org/10.1080/00268976.2012.687466
  3. Neese,F.
     The ORCA program system
     WIRES Comput. Molec. Sci., 2012 2(1)73-78
     doi.org/10.1002/wcms.81
  4. Izsak,R.; Neese,F.; Klopper,W.
     Robust fitting techniques in the chain of spheres approximation to the Fock exchange: The role of the complementary space
     J. Chem. Phys., 2013 139 
     doi.org/10.1063/1.4819264
  5. Neese,F.
     Software update: the ORCA program system, version 4.0
     WIRES Comput. Molec. Sci., 2018 8(1)1-6
     doi.org/10.1002/wcms.1327
  6. Neese,F.; Wennmohs,F.; Becker,U.; Riplinger,C.
     The ORCA quantum chemistry program package
     J. Chem. Phys., 2020 152 Art. No. L224108
     doi.org/10.1063/5.0004608

List of optional additional citations

  1. Neese,F.
     Approximate second-order SCF convergence for spin unrestricted wavefunctions
     Chem. Phys. Lett., 2000 325(1-3)93-98
     doi.org/10.1016/s0009-2614(00)00662-x

Timings for individual modules:

Sum of individual times          ...      110.810 sec (=   1.847 min)
Startup calculation              ...       23.401 sec (=   0.390 min)  21.1 %
SCF iterations                   ...       52.746 sec (=   0.879 min)  47.6 %
Property calculations            ...       15.693 sec (=   0.262 min)  14.2 %
MP2 module                       ...       18.970 sec (=   0.316 min)  17.1 %
                             ****ORCA TERMINATED NORMALLY****
TOTAL RUN TIME: 0 days 0 hours 2 minutes 17 seconds 355 msec
