
                                 *****************
                                 * O   R   C   A *
                                 *****************

                                            #,                                       
                                            ###                                      
                                            ####                                     
                                            #####                                    
                                            ######                                   
                                           ########,                                 
                                     ,,################,,,,,                         
                               ,,#################################,,                 
                          ,,##########################################,,             
                       ,#########################################, ''#####,          
                    ,#############################################,,   '####,        
                  ,##################################################,,,,####,       
                ,###########''''           ''''###############################       
              ,#####''   ,,,,##########,,,,          '''####'''          '####       
            ,##' ,,,,###########################,,,                        '##       
           ' ,,###''''                  '''############,,,                           
         ,,##''                                '''############,,,,        ,,,,,,###''
      ,#''                                            '''#######################'''  
     '                                                          ''''####''''         
             ,#######,   #######,   ,#######,      ##                                
            ,#'     '#,  ##    ##  ,#'     '#,    #''#        ,####,   ,####,        
            ##       ##  ##   ,#'  ##            #'  '#       #'       #'  '#        
            ##       ##  #######   ##           ,######,      #####,   #    #        
            '#,     ,#'  ##    ##  '#,     ,#' ,#      #,     #,   #   #,  ,#        
             '#######'   ##     ##  '#######'  #'      '#     '####' # '####'        



                #########################################################
                #                        -***-                          #
                #          Department of theory and spectroscopy        #
                #                                                       #
                #                      Frank Neese                      #
                #                                                       #
                #     Directorship, Architecture, Infrastructure        #
                #                    SHARK, DRIVERS                     #
                #        Core code/Algorithms in most modules           #
                #                                                       #
                #        Max Planck Institute fuer Kohlenforschung      #
                #                Kaiser Wilhelm Platz 1                 #
                #                 D-45470 Muelheim/Ruhr                 #
                #                      Germany                          #
                #                                                       #
                #                  All rights reserved                  #
                #                        -***-                          #
                #########################################################


                         Program Version 6.0.1  -  RELEASE   -


 With contributions from (in alphabetic order):
[Max-Planck-Institut fuer Kohlenforschung]                               
  Daniel Aravena         : Magnetic Suceptibility                        
  Michael Atanasov       : Ab Initio Ligand Field Theory (pilot matlab implementation)
  Alexander A. Auer      : GIAO ZORA, VPT2 properties, NMR spectrum      
  Ute Becker             : All parallelization in ORCA, NUMFREQ, NUMCALC 
  Giovanni Bistoni       : ED, misc. LED, open-shell LED, HFLD           
  Martin Brehm           : Molecular dynamics                            
  Dmytro Bykov           : pre 5.0 version of the SCF Hessian            
  Marcos Casanova-Páez   : Triplet and SCS-CIS(D). UHF-(DLPNO)-IP/EA/STEOM-CCSD. UHF-CVS-IP/STEOM-CCSD   
  Vijay G. Chilkuri      : MRCI spin determinant printing, contributions to CSF-ICE 
  Pauline Colinet        : FMM embedding                                 
  Dipayan Datta          : RHF DLPNO-CCSD density                        
  Achintya Kumar Dutta   : EOM-CC, STEOM-CC                              
  Nicolas Foglia         : Exact transition moments, OPA infrastructure, MCD improvements    
  Dmitry Ganyushin       : Spin-Orbit,Spin-Spin,Magnetic field MRCI      
  Miquel Garcia-Rates    : C-PCM and meta-GGA Hessian, CCSD/C-PCM, Gaussian charge scheme 
  Tiago L. C. Gouveia    : GS-ROHF, GS-ROCIS                             
  Yang Guo               : DLPNO-NEVPT2, F12-NEVPT2, CIM, IAO-localization        
  Andreas Hansen         : Spin unrestricted coupled pair/coupled cluster methods 
  Ingolf Harden          : AUTO-CI MPn and infrastructure                
  Benjamin Helmich-Paris : MC-RPA, TRAH-(SCF,CASSCF), AVAS, COSX integrals, SCF dyn. polar. 
  Lee Huntington         : MR-EOM, pCC                                   
  Robert Izsak           : Overlap fitted RIJCOSX, COSX-SCS-MP3, EOM     
  Riya Kayal             : Wick's Theorem for AUTO-CI, AUTO-CI UHF-CCSDT 
  Emily Kempfer          : AUTO-CI, RHF CISDT and CCSDT                  
  Christian Kollmar      : KDIIS, OOCD, Brueckner-CCSD(T), CCSD density, CASPT2, CASPT2-K, improved NEVPT2 
  Axel Koslowski         : Symmetry handling                             
  Simone Kossmann        : meta-GGA functionals, TD-DFT gradient, OOMP2, (MP2 Hessian; deprecated post 5.0) 
  Lucas Lang             : DCDCAS                                        
  Marvin Lechner         : AUTO-CI (C++ implementation), FIC-MRCC        
  Spencer Leger          : CASSCF response                               
  Dagmar Lenk            : GEPOL surface, SMD, ORCA-2-JSON               
  Dimitrios Liakos       : Extrapolation schemes; Compound Job, initial MDCI parallelization 
  Dimitrios Manganas     : Further ROCIS development; embedding schemes. LFT, Crystal Embedding 
  Dimitrios Pantazis     : SARC Basis sets                               
  Anastasios Papadopoulos: AUTO-CI, single reference methods and gradients 
  Taras Petrenko         : pre 6.0 DFT Hessian and TD-DFT gradient, (ASA, deprecated), ECA, 1-Electron XAS/XES, NRVS 
  Peter Pinski           : DLPNO-MP2, DLPNO-MP2 Gradient                 
  Christoph Reimann      : Effective Core Potentials                     
  Marius Retegan         : Local ZFS, SOC                                
  Christoph Riplinger    : Optimizer, TS searches, QM/MM, DLPNO-CCSD(T), (RO)-DLPNO pert. Triples 
  Michael Roemelt        : Original ROCIS implementation                 
  Masaaki Saitow         : Open-shell DLPNO-CCSD energy and density      
  Barbara Sandhoefer     : DKH picture change effects                    
  Kantharuban Sivalingam : CASSCF convergence/infrastructure, NEVPT2 and variants, FIC-MRCI 
  Bernardo de Souza      : ESD, SOC TD-DFT                               
  Georgi L. Stoychev     : AutoAux, RI-MP2 NMR, DLPNO-MP2 response, X2C  
  Van Anh Tran           : RI-MP2 g-tensors                              
  Willem Van den Heuvel  : Paramagnetic NMR                              
  Zikuan Wang            : NOTCH, Electric field optimization            
  Frank Wennmohs         : Technical directorship and infrastructure     
  Hang Xu                : AUTO-CI-Response properties                   
                                                                         
[FACCTs GmbH]                                                            
  Markus Bursch, Miquel Garcia-Rates, Christoph Riplinger, Bernardo de Souza, Georgi L. Stoychev 
                                                                 
  APM, Basis sets (HGBS, AHGBS, def-TZVP (Ac-Lr), def2-XVPD (La-Lu)), CI-OPT, improved COSX, DLPNO-Multilevel,           
  DOCKER, DRACO, updates on ESD, GOAT, IRC, LR-CPCM, MBIS, meta-GGA TD-DFT gradient, ML-optimized integration grids, 
  MM, NACMEs, nearIR, NEB, NEB-TS, NL-DFT gradient (VV10), 2- and 3-layer-ONIOM, interface openCOSMO-RS, QMMM,   
  Crystal-QMMM, SF, symmetry and pop. for TD-DFT, r2SCAN hybrids, SOLVATOR                                   
                                                                         
[Other institutions]                                                     
  V. Asgeirsson          : NEB                                           
  Christoph Bannwarth    : sTDA-DFT, sTD-DFT, PBEh-3c, B97-3c, D3        
  Sebastian Ehlert       : rSCAN, r2SCAN, r2SCAN-3c, D4, dhf basis sets  
  Marvin Friede          : D4 for Fr, Ra, Ac-Lr                          
  Lars Goerigk           : TD-DFT with DH, B97 family of functionals     
  Stefan Grimme          : VdW corrections, initial TS optimization, DFT functionals, gCP, sTDA/sTD-DF 
  Waldemar Hujo          : DFT-NL                                        
  H. Jonsson             : NEB                                           
  Holger Kruse           : gCP                                           
  Marcel Mueller         : wB97X-3c, vDZP basis set                      
  Hagen Neugebauer       : wr2SCAN                                       
  Tobias Risthaus        : range-separated hybrid DFT                    
  Lukas Wittmann         : regularized MP2, r2SCAN double-hybrids, wr2SCAN        
                                                                         
We gratefully acknowledge several colleagues who have allowed us to      
interface, adapt or use parts of their codes:                            
  Ed Valeev, F. Pavosevic, A. Kumar             : LibInt (2-el integral package), F12 methods 
  Garnet Chan, S. Sharma, J. Yang, R. Olivares  : DMRG                   
  Ulf Ekstrom                                   : XCFun DFT Library      
  Mihaly Kallay                                 : mrcc  (arbitrary order and MRCC methods)
  Frank Weinhold                                : gennbo (NPA and NBO analysis)           
  Simon Mueller                                 : openCOSMO-RS                            
  Christopher J. Cramer and Donald G. Truhlar   : smd solvation model                     
  S Lehtola, MJT Oliveira, MAL Marques          : LibXC Library                           
  Liviu Ungur et al                             : ANISO software                          


 Your calculation uses the libint2 library for the computation of 2-el integrals
 For citations please refer to: http://libint.valeyev.net

 Your ORCA version has been built with support for libXC version: 6.2.2
 For citations please refer to: https://libxc.gitlab.io

 This ORCA versions uses:
   CBLAS   interface :  Fast vector & matrix operations
   LAPACKE interface :  Fast linear algebra routines
   SCALAPACK package :  Parallel linear algebra routines
   Shared memory     :  Shared parallel matrices
   BLAS/LAPACK       :  OpenBLAS 0.3.27  USE64BITINT DYNAMIC_ARCH NO_AFFINITY SapphireRapids SINGLE_THREADED
        Core in use  :  SapphireRapids
   Copyright (c) 2011-2014, The OpenBLAS Project




***************************************
The coordinates will be read from file: /scratch/kx58/rs2200/dhdft/inputs/compas3x-xyzs/hc_c24h14_0pent_13.xyz
***************************************


Your calculation utilizes the atom-pairwise dispersion correction
based on EEQ partial charges (D4)


Warning: RI is on but no J-basis has been assigned. Assigning Def2/J (nothing to worry about!)
================================================================================

----- Orbital basis set information -----
Your calculation utilizes the basis: def2-TZVP
   F. Weigend and R. Ahlrichs, Phys. Chem. Chem. Phys. 7, 3297 (2005).

----- AuxJ basis set information -----
Your calculation utilizes the auxiliary basis: def2/J
   F. Weigend, Phys. Chem. Chem. Phys. 8, 1057 (2006).

----- AuxC basis set information -----
Your calculation utilizes the auxiliary basis: def2-TZVP/C
  H-La, Hf-Rn : A. Hellweg, C. Hattig, S. Hofener and W. Klopper, Theor. Chem. Acc. 117, 587 (2007).
        Ce-Lu : J. Chmela and M. E. Harding, Mol. Phys. (2018).

================================================================================
                                        WARNINGS
                       Please study these warnings very carefully!
================================================================================


WARNING: No MP2 level density has been requested!
         To calculate MP2 level properties use
         %mp2 Density relaxed end
         or
         %mp2 Density unrelaxed end
         Otherwise for double-hybrid DFT only the energy is correct!

================================================================================
                                       INPUT FILE
================================================================================
NAME = hc_c24h14_0pent_13_tz_ri.inp
|  1> ! RKS revDSD-PBEP86-D4/2021 defgrid3  NOPOP NoFrozencore NoUseSym
|  2> 
|  3> %basis
|  4>   Basis "def2-TZVP"
|  5>   
|  6>   AuxC "def2-TZVP/C"
|  7> end
|  8> 
|  9> %method
| 10>   ScalHFX 0.69
| 11>   ScalDFX 0.31
| 12>   ScalDFC 0.4038
| 13>   ScalLDAC 0.4038
| 14> 
| 15>   D4S6 0.4612
| 16>   D4S8 0.0
| 17>   D4A1 0.44
| 18>   D4A2 3.60
| 19> end
| 20> 
| 21> %mp2
| 22>   PS 0.5979
| 23>   PT 0.0571
| 24> end
| 25> 
| 26> %pal
| 27>     nprocs 104
| 28> end
| 29> 
| 30> *XYZFILE 0 1 /scratch/kx58/rs2200/dhdft/inputs/compas3x-xyzs/hc_c24h14_0pent_13.xyz
| 31> 
| 32>                          ****END OF INPUT****
================================================================================

                       ****************************
                       * Single Point Calculation *
                       ****************************

---------------------------------
CARTESIAN COORDINATES (ANGSTROEM)
---------------------------------
  C      0.384440   -0.468704    0.040979
  C     -0.966204   -0.854559   -0.032935
  C     -2.000274    0.109606   -0.222896
  C     -1.641996    1.520245   -0.258572
  C     -0.277602    1.861684   -0.440350
  C      0.735819    0.866584   -0.404743
  C      1.340032   -1.390299    0.535805
  C      0.984019   -2.771149    0.637885
  C     -0.319044   -3.169032    0.353197
  C     -1.316622   -2.233246    0.094260
  C     -2.668121   -2.620406   -0.062885
  C     -3.632516   -1.684802   -0.296430
  C     -3.302555   -0.325367   -0.359637
  C     -2.577967    2.537732   -0.181713
  C     -2.209419    3.874047   -0.336589
  C     -0.912605    4.208403   -0.621716
  C      0.078729    3.210728   -0.696763
  C      1.410143    3.516543   -1.044915
  C      2.333306    2.514975   -1.181565
  C      2.002321    1.197523   -0.861289
  C      2.613574   -1.007817    1.020796
  C      3.518165   -1.934024    1.452582
  C      3.208695   -3.306534    1.424035
  C      1.964541   -3.709929    1.047320
  H     -0.571080   -4.219986    0.376614
  H     -2.917443   -3.668599    0.016395
  H     -4.663944   -1.981167   -0.421473
  H     -4.098290    0.383219   -0.527730
  H     -3.616678    2.310709    0.000737
  H     -2.965207    4.642218   -0.258350
  H     -0.631854    5.237053   -0.796029
  H      1.675563    4.545742   -1.238594
  H      3.334534    2.738555   -1.520724
  H      2.743340    0.425580   -1.000239
  H      2.847315    0.042378    1.106342
  H      4.476781   -1.616284    1.836113
  H      3.949038   -4.025706    1.742480
  H      1.687066   -4.753914    1.081598

----------------------------
CARTESIAN COORDINATES (A.U.)
----------------------------
  NO LB      ZA    FRAG     MASS         X           Y           Z
   0 C     6.0000    0    12.011    0.726486   -0.885722    0.077438
   1 C     6.0000    0    12.011   -1.825860   -1.614882   -0.062238
   2 C     6.0000    0    12.011   -3.779969    0.207125   -0.421213
   3 C     6.0000    0    12.011   -3.102924    2.872847   -0.488630
   4 C     6.0000    0    12.011   -0.524591    3.518074   -0.832141
   5 C     6.0000    0    12.011    1.390497    1.637607   -0.764853
   6 C     6.0000    0    12.011    2.532293   -2.627285    1.012524
   7 C     6.0000    0    12.011    1.859526   -5.236713    1.205428
   8 C     6.0000    0    12.011   -0.602906   -5.988603    0.667446
   9 C     6.0000    0    12.011   -2.488056   -4.220223    0.178126
  10 C     6.0000    0    12.011   -5.042019   -4.951850   -0.118836
  11 C     6.0000    0    12.011   -6.864460   -3.183814   -0.560172
  12 C     6.0000    0    12.011   -6.240924   -0.614854   -0.679615
  13 C     6.0000    0    12.011   -4.871652    4.795618   -0.343388
  14 C     6.0000    0    12.011   -4.175196    7.320889   -0.636060
  15 C     6.0000    0    12.011   -1.724573    7.952729   -1.174873
  16 C     6.0000    0    12.011    0.148776    6.067396   -1.316691
  17 C     6.0000    0    12.011    2.664783    6.645302   -1.974604
  18 C     6.0000    0    12.011    4.409309    4.752613   -2.232834
  19 C     6.0000    0    12.011    3.783839    2.262990   -1.627601
  20 C     6.0000    0    12.011    4.938939   -1.904498    1.929025
  21 C     6.0000    0    12.011    6.648368   -3.654776    2.744983
  22 C     6.0000    0    12.011    6.063556   -6.248443    2.691037
  23 C     6.0000    0    12.011    3.712444   -7.010749    1.979148
  24 H     1.0000    0     1.008   -1.079185   -7.974617    0.711698
  25 H     1.0000    0     1.008   -5.513168   -6.932648    0.030981
  26 H     1.0000    0     1.008   -8.813577   -3.743864   -0.796468
  27 H     1.0000    0     1.008   -7.744645    0.724180   -0.997264
  28 H     1.0000    0     1.008   -6.834531    4.366607    0.001392
  29 H     1.0000    0     1.008   -5.603429    8.772520   -0.488211
  30 H     1.0000    0     1.008   -1.194030    9.896595   -1.504277
  31 H     1.0000    0     1.008    3.166355    8.590207   -2.340604
  32 H     1.0000    0     1.008    6.301356    5.175119   -2.873753
  33 H     1.0000    0     1.008    5.184161    0.804229   -1.890177
  34 H     1.0000    0     1.008    5.380646    0.080082    2.090683
  35 H     1.0000    0     1.008    8.459891   -3.054334    3.469751
  36 H     1.0000    0     1.008    7.462600   -7.607481    3.292810
  37 H     1.0000    0     1.008    3.188092   -8.983596    2.043923

--------------------------------
INTERNAL COORDINATES (ANGSTROEM)
--------------------------------
 C      0   0   0     0.000000000000     0.00000000     0.00000000
 C      1   0   0     1.406621720109     0.00000000     0.00000000
 C      2   1   0     1.426534026951   121.17339191     0.00000000
 C      3   2   1     1.455863681442   118.66966935   356.29737324
 C      4   3   2     1.418166654649   118.24120496    15.56284251
 C      5   4   3     1.420744316323   120.95828779   351.48654794
 C      1   2   3     1.416808609032   119.17938863   165.33513820
 C      7   1   2     1.429654588714   119.02876122    15.14869778
 C      8   7   1     1.391880576665   119.64515754   354.91738214
 C      9   8   7     1.392086991698   121.11539369   353.79562596
 C     10   9   8     1.414615547043   121.42078442   186.44012868
 C     11  10   9     1.363801799308   120.45447538   179.02323840
 C      3   2   1     1.379795474314   118.96596169   176.60533546
 C      4   3   2     1.384639445553   122.97692074   192.66486978
 C     14   4   3     1.394831166065   121.28131530   185.68768405
 C     15  14   4     1.369240049561   120.48524324     2.56016776
 C     16  15  14     1.408449353428   120.31412573   356.84782957
 C     17  16  15     1.409750116849   121.61668980   177.21784011
 C     18  17  16     1.368956419352   120.18699301   183.63068766
 C      6   5   4     1.386355650286   118.43671639   166.62936214
 C      7   1   2     1.415422186386   123.41899548   199.35301766
 C     21   7   1     1.364765483418   121.42588994   181.92122335
 C     22  21   7     1.407255623647   120.64532811     0.17285493
 C     23  22  21     1.361088777595   119.71528815   355.56503763
 H      9   8   7     1.081005957028   119.45593115   176.54233250
 H     11  10   9     1.080349477069   118.54635755   359.64237342
 H     12  11  10     1.080422146439   120.44484856   179.68480288
 H     13   3   2     1.078676765549   120.30558503   181.46162470
 H     14   4   3     1.078771193403   120.37181505     5.67909977
 H     15  14   4     1.080473394975   119.22675745   180.73864775
 H     16  15  14     1.080428598872   120.80989181   176.63451961
 H     18  17  16     1.080375344533   118.87813203     1.24215958
 H     19  18  17     1.080497683620   120.31962909   175.35979346
 H     20   6   5     1.079032922230   119.93416010   190.16281797
 H     21   7   1     1.079287256396   119.00991568     5.74161639
 H     22  21   7     1.080277624366   120.05846408   181.17090228
 H     23  22  21     1.080149100343   119.51558892   178.18442726
 H     24  23  22     1.080774380661   120.80985136   184.08107577

---------------------------
INTERNAL COORDINATES (A.U.)
---------------------------
 C      0   0   0     0.000000000000     0.00000000     0.00000000
 C      1   0   0     2.658129825032     0.00000000     0.00000000
 C      2   1   0     2.695758631658   121.17339191     0.00000000
 C      3   2   1     2.751183646247   118.66966935   356.29737324
 C      4   3   2     2.679946589545   118.24120496    15.56284251
 C      5   4   3     2.684817664176   120.95828779   351.48654794
 C      1   2   3     2.677380255252   119.17938863   165.33513820
 C      7   1   2     2.701655638774   119.02876122    15.14869778
 C      8   7   1     2.630273101020   119.64515754   354.91738214
 C      9   8   7     2.630663168903   121.11539369   353.79562596
 C     10   9   8     2.673235968698   121.42078442   186.44012868
 C     11  10   9     2.577211901640   120.45447538   179.02323840
 C      3   2   1     2.607435567277   118.96596169   176.60533546
 C      4   3   2     2.616589346320   122.97692074   192.66486978
 C     14   4   3     2.635848906920   121.28131530   185.68768405
 C     15  14   4     2.587488705268   120.48524324     2.56016776
 C     16  15  14     2.661583551477   120.31412573   356.84782957
 C     17  16  15     2.664041638108   121.61668980   177.21784011
 C     18  17  16     2.586952721849   120.18699301   183.63068766
 C      6   5   4     2.619832503254   118.43671639   166.62936214
 C      7   1   2     2.674760296146   123.41899548   199.35301766
 C     21   7   1     2.579033000689   121.42588994   181.92122335
 C     22  21   7     2.659327729113   120.64532811     0.17285493
 C     23  22  21     2.572085033609   119.71528815   355.56503763
 H      9   8   7     2.042805207921   119.45593115   176.54233250
 H     11  10   9     2.041564640585   118.54635755   359.64237342
 H     12  11  10     2.041701965794   120.44484856   179.68480288
 H     13   3   2     2.038403673911   120.30558503   181.46162470
 H     14   4   3     2.038582116694   120.37181505     5.67909977
 H     15  14   4     2.041798811490   119.22675745   180.73864775
 H     16  15  14     2.041714159124   120.80989181   176.63451961
 H     18  17  16     2.041613523008   118.87813203     1.24215958
 H     19  18  17     2.041844710379   120.31962909   175.35979346
 H     20   6   5     2.039076712500   119.93416010   190.16281797
 H     21   7   1     2.039557334420   119.00991568     5.74161639
 H     22  21   7     2.041428858656   120.05846408   181.17090228
 H     23  22  21     2.041185983450   119.51558892   178.18442726
 H     24  23  22     2.042367592007   120.80985136   184.08107577

---------------------
BASIS SET INFORMATION
---------------------
There are 2 groups of distinct atoms

 Group   1 Type C   : 11s6p2d1f contracted to 5s3p2d1f pattern {62111/411/11/1}
 Group   2 Type H   : 5s1p contracted to 3s1p pattern {311/1}

Atom   0C    basis set group =>   1
Atom   1C    basis set group =>   1
Atom   2C    basis set group =>   1
Atom   3C    basis set group =>   1
Atom   4C    basis set group =>   1
Atom   5C    basis set group =>   1
Atom   6C    basis set group =>   1
Atom   7C    basis set group =>   1
Atom   8C    basis set group =>   1
Atom   9C    basis set group =>   1
Atom  10C    basis set group =>   1
Atom  11C    basis set group =>   1
Atom  12C    basis set group =>   1
Atom  13C    basis set group =>   1
Atom  14C    basis set group =>   1
Atom  15C    basis set group =>   1
Atom  16C    basis set group =>   1
Atom  17C    basis set group =>   1
Atom  18C    basis set group =>   1
Atom  19C    basis set group =>   1
Atom  20C    basis set group =>   1
Atom  21C    basis set group =>   1
Atom  22C    basis set group =>   1
Atom  23C    basis set group =>   1
Atom  24H    basis set group =>   2
Atom  25H    basis set group =>   2
Atom  26H    basis set group =>   2
Atom  27H    basis set group =>   2
Atom  28H    basis set group =>   2
Atom  29H    basis set group =>   2
Atom  30H    basis set group =>   2
Atom  31H    basis set group =>   2
Atom  32H    basis set group =>   2
Atom  33H    basis set group =>   2
Atom  34H    basis set group =>   2
Atom  35H    basis set group =>   2
Atom  36H    basis set group =>   2
Atom  37H    basis set group =>   2
---------------------------------
AUXILIARY/J BASIS SET INFORMATION
---------------------------------
There are 2 groups of distinct atoms

 Group   1 Type C   : 12s5p4d2f1g contracted to 6s4p3d1f1g pattern {711111/2111/211/2/1}
 Group   2 Type H   : 5s2p1d contracted to 3s1p1d pattern {311/2/1}

Atom   0C    basis set group =>   1
Atom   1C    basis set group =>   1
Atom   2C    basis set group =>   1
Atom   3C    basis set group =>   1
Atom   4C    basis set group =>   1
Atom   5C    basis set group =>   1
Atom   6C    basis set group =>   1
Atom   7C    basis set group =>   1
Atom   8C    basis set group =>   1
Atom   9C    basis set group =>   1
Atom  10C    basis set group =>   1
Atom  11C    basis set group =>   1
Atom  12C    basis set group =>   1
Atom  13C    basis set group =>   1
Atom  14C    basis set group =>   1
Atom  15C    basis set group =>   1
Atom  16C    basis set group =>   1
Atom  17C    basis set group =>   1
Atom  18C    basis set group =>   1
Atom  19C    basis set group =>   1
Atom  20C    basis set group =>   1
Atom  21C    basis set group =>   1
Atom  22C    basis set group =>   1
Atom  23C    basis set group =>   1
Atom  24H    basis set group =>   2
Atom  25H    basis set group =>   2
Atom  26H    basis set group =>   2
Atom  27H    basis set group =>   2
Atom  28H    basis set group =>   2
Atom  29H    basis set group =>   2
Atom  30H    basis set group =>   2
Atom  31H    basis set group =>   2
Atom  32H    basis set group =>   2
Atom  33H    basis set group =>   2
Atom  34H    basis set group =>   2
Atom  35H    basis set group =>   2
Atom  36H    basis set group =>   2
Atom  37H    basis set group =>   2
---------------------------------
AUXILIARY/C BASIS SET INFORMATION
---------------------------------
There are 2 groups of distinct atoms

 Group   1 Type C   : 8s6p5d3f1g contracted to 8s6p4d3f1g pattern {11111111/111111/2111/111/1}
 Group   2 Type H   : 4s3p2d contracted to 4s2p1d pattern {1111/21/2}

Atom   0C    basis set group =>   1
Atom   1C    basis set group =>   1
Atom   2C    basis set group =>   1
Atom   3C    basis set group =>   1
Atom   4C    basis set group =>   1
Atom   5C    basis set group =>   1
Atom   6C    basis set group =>   1
Atom   7C    basis set group =>   1
Atom   8C    basis set group =>   1
Atom   9C    basis set group =>   1
Atom  10C    basis set group =>   1
Atom  11C    basis set group =>   1
Atom  12C    basis set group =>   1
Atom  13C    basis set group =>   1
Atom  14C    basis set group =>   1
Atom  15C    basis set group =>   1
Atom  16C    basis set group =>   1
Atom  17C    basis set group =>   1
Atom  18C    basis set group =>   1
Atom  19C    basis set group =>   1
Atom  20C    basis set group =>   1
Atom  21C    basis set group =>   1
Atom  22C    basis set group =>   1
Atom  23C    basis set group =>   1
Atom  24H    basis set group =>   2
Atom  25H    basis set group =>   2
Atom  26H    basis set group =>   2
Atom  27H    basis set group =>   2
Atom  28H    basis set group =>   2
Atom  29H    basis set group =>   2
Atom  30H    basis set group =>   2
Atom  31H    basis set group =>   2
Atom  32H    basis set group =>   2
Atom  33H    basis set group =>   2
Atom  34H    basis set group =>   2
Atom  35H    basis set group =>   2
Atom  36H    basis set group =>   2
Atom  37H    basis set group =>   2


           ************************************************************
           *        Program running with 104 parallel MPI-processes   *
           *              working on a common directory               *
           ************************************************************
------------------------------------------------------------------------------
                             ORCA STARTUP CALCULATIONS
                           -- RI-GTO INTEGRALS CHOSEN --
------------------------------------------------------------------------------
------------------------------------------------------------------------------
                   ___                                                        
                  /   \      - P O W E R E D   B Y -                         
                 /     \                                                     
                 |  |  |   _    _      __       _____    __    __             
                 |  |  |  | |  | |    /  \     |  _  \  |  |  /  |          
                  \  \/   | |  | |   /    \    | | | |  |  | /  /          
                 / \  \   | |__| |  /  /\  \   | |_| |  |  |/  /          
                |  |  |   |  __  | /  /__\  \  |    /   |      \           
                |  |  |   | |  | | |   __   |  |    \   |  |\   \          
                \     /   | |  | | |  |  |  |  | |\  \  |  | \   \       
                 \___/    |_|  |_| |__|  |__|  |_| \__\ |__|  \__/        
                                                                              
                      - O R C A' S   B I G   F R I E N D -                    
                                      &                                       
                       - I N T E G R A L  F E E D E R -                       
                                                                              
 v1 FN, 2020, v2 2021, v3 2022-2024                                           
------------------------------------------------------------------------------


----------------------
SHARK INTEGRAL PACKAGE
----------------------

Number of atoms                             ...     38
Number of basis functions                   ...    828
Number of shells                            ...    320
Maximum angular momentum                    ...      3
Integral batch strategy                     ... SHARK/LIBINT Hybrid
RI-J (if used) integral strategy            ... SPLIT-RIJ (Revised 2003 algorithm where possible)
Printlevel                                  ...      1
Contraction scheme used                     ... SEGMENTED contraction
Prescreening option                         ... SCHWARTZ
   Thresh                                   ... 1.000e-10
   Tcut                                     ... 1.000e-11
   Tpresel                                  ... 1.000e-11 
Coulomb Range Separation                    ... NOT USED
Exchange Range Separation                   ... NOT USED
Multipole approximations                    ... NOT USED
Finite Nucleus Model                        ... NOT USED
CABS basis                                  ... NOT available
Auxiliary Coulomb fitting basis             ... AVAILABLE
   # of basis functions in Aux-J            ...   1330
   # of shells in Aux-J                     ...    430
   Maximum angular momentum in Aux-J        ...      4
Auxiliary J/K fitting basis                 ... NOT available
Auxiliary Correlation fitting basis         ... AVAILABLE
   # of basis functions in Aux-C            ...   2034
   # of shells in Aux-C                     ...    626
   Maximum angular momentum in Aux-C        ...      4
Auxiliary 'external' fitting basis          ... NOT available

Checking pre-screening integrals            ... done (  0.0 sec) Dimension = 320
Check shell pair data                       ... done (  0.0 sec)
Shell pair information
Shell pair cut-off parameter TPreSel        ...   1.0e-11
Total number of shell pairs                 ...     51360
Shell pairs after pre-screening             ...     37384
Total number of primitive shell pairs       ...    159900
Primitive shell pairs kept                  ...     77410
          la=0 lb=0:   9022 shell pairs
          la=1 lb=0:  10569 shell pairs
          la=1 lb=1:   3063 shell pairs
          la=2 lb=0:   5514 shell pairs
          la=2 lb=1:   3220 shell pairs
          la=2 lb=2:    878 shell pairs
          la=3 lb=0:   2575 shell pairs
          la=3 lb=1:   1532 shell pairs
          la=3 lb=2:    806 shell pairs
          la=3 lb=3:    205 shell pairs

Calculating one electron integrals          ... done (  0.6 sec)
Calculating RI/J V-Matrix + Cholesky decomp.... done (  0.4 sec)
Calculating RI/C V-Matrix + Cholesky decomp.... done (  0.6 sec)
Calculating Nuclear repulsion               ... done (  0.0 sec) ENN=   1833.724279272477 Eh

Diagonalization of the overlap matrix:
Smallest eigenvalue                        ... 2.653e-06
Time for diagonalization                   ...    0.121 sec
Threshold for overlap eigenvalues          ... 1.000e-07
Number of eigenvalues below threshold      ... 0
Time for construction of square roots      ...    0.051 sec
Total time needed                          ...    0.206 sec

-------------------
DFT GRID GENERATION
-------------------

General Integration Accuracy     IntAcc      ... 4.959
Radial Grid Type                 RadialGrid  ... OptM3 with GC (2021)
Angular Grid (max. ang.)         AngularGrid ... 6 (Lebedev-590)
Angular grid pruning method      GridPruning ... 4 (adaptive)
Weight generation scheme         WeightScheme... mBecke (2022)
Basis function cutoff            BFCut       ... 1.0000e-10
Integration weight cutoff        WCut        ... 1.0000e-14
Partially contracted basis set               ... off
Rotationally invariant grid construction     ... off
Angular grids for H and He will be reduced by one unit

Total number of grid points                  ...   457336
Total number of batches                      ...     7165
Average number of points per batch           ...       63
Average number of grid points per atom       ...    12035

--------------------
COSX GRID GENERATION
--------------------

GRIDX 1
-------
General Integration Accuracy     IntAcc      ... 4.020
Radial Grid Type                 RadialGrid  ... OptM3 with GC (2021)
Angular Grid (max. ang.)         AngularGrid ... 2 (Lebedev-110)
Angular grid pruning method      GridPruning ... 4 (adaptive)
Weight generation scheme         WeightScheme... mBecke (2022)
Basis function cutoff            BFCut       ... 1.0000e-10
Integration weight cutoff        WCut        ... 1.0000e-14
Partially contracted basis set               ... on
Rotationally invariant grid construction     ... off
Angular grids for H and He will be reduced by one unit

Total number of grid points                  ...    52068
Total number of batches                      ...      425
Average number of points per batch           ...      122
Average number of grid points per atom       ...     1370
UseSFitting                                  ... on

GRIDX 2
-------
General Integration Accuracy     IntAcc      ... 4.338
Radial Grid Type                 RadialGrid  ... OptM3 with GC (2021)
Angular Grid (max. ang.)         AngularGrid ... 3 (Lebedev-194)
Angular grid pruning method      GridPruning ... 4 (adaptive)
Weight generation scheme         WeightScheme... mBecke (2022)
Basis function cutoff            BFCut       ... 1.0000e-10
Integration weight cutoff        WCut        ... 1.0000e-14
Partially contracted basis set               ... on
Rotationally invariant grid construction     ... off
Angular grids for H and He will be reduced by one unit

Total number of grid points                  ...   114147
Total number of batches                      ...      914
Average number of points per batch           ...      124
Average number of grid points per atom       ...     3004
UseSFitting                                  ... on

GRIDX 3
-------
General Integration Accuracy     IntAcc      ... 4.871
Radial Grid Type                 RadialGrid  ... OptM3 with GC (2021)
Angular Grid (max. ang.)         AngularGrid ... 4 (Lebedev-302)
Angular grid pruning method      GridPruning ... 4 (adaptive)
Weight generation scheme         WeightScheme... mBecke (2022)
Basis function cutoff            BFCut       ... 1.0000e-10
Integration weight cutoff        WCut        ... 1.0000e-14
Partially contracted basis set               ... on
Rotationally invariant grid construction     ... off
Angular grids for H and He will be reduced by one unit

Total number of grid points                  ...   210644
Total number of batches                      ...     1665
Average number of points per batch           ...      126
Average number of grid points per atom       ...     5543
UseSFitting                                  ... on
Initializing property integral containers    ... done (  0.0 sec)

SHARK setup successfully completed in   8.7 seconds

Maximum memory used throughout the entire STARTUP-calculation: 119.7 MB


           ************************************************************
           *        Program running with 104 parallel MPI-processes   *
           *              working on a common directory               *
           ************************************************************
-------------------------------------------------------------------------------
                                 ORCA GUESS
                   Start orbitals & Density for SCF / CASSCF
-------------------------------------------------------------------------------

------------
SCF SETTINGS
------------
Hamiltonian:
 Density Functional     Method          .... DFT(GTOs)
 Exchange Functional    Exchange        .... PBE
   PBE kappa parameter   XKappa         ....  0.804000
   PBE mue parameter    XMuePBE         ....  0.219520
 Correlation Functional Correlation     .... P86
 LDA part of GGA corr.  LDAOpt          .... VWN-5
 Gradients option       PostSCFGGA      .... off
 Hybrid DFT is turned on
   Fraction HF Exchange ScalHFX         ....  0.690000
   Scaling of DF-GGA-X  ScalDFX         ....  0.310000
   Scaling of DF-GGA-C  ScalDFC         ....  0.403800
   Scaling of DF-LDA-C  ScalLDAC        ....  0.403800
   Perturbative correction              ....  1.000000
 RI-approximation to the Coulomb term is turned on
   Number of AuxJ basis functions       .... 1330
   RIJ-COSX (HFX calculated with COS-X)).... on


General Settings:
 Integral files         IntName         .... hc_c24h14_0pent_13_tz_ri
 Hartree-Fock type      HFTyp           .... RHF
 Total Charge           Charge          ....    0
 Multiplicity           Mult            ....    1
 Number of Electrons    NEL             ....  158
 Basis Dimension        Dim             ....  828
 Nuclear Repulsion      ENuc            ....   1833.7242792725 Eh

Convergence Acceleration:
 AO-DIIS                CNVDIIS         .... on
   Start iteration      DIISMaxIt       ....    12
   Startup error        DIISStart       ....  0.200000
   # of expansion vecs  DIISMaxEq       ....     5
   Bias factor          DIISBfac        ....   1.050
   Max. coefficient     DIISMaxC        ....  10.000
 MO-DIIS                CNVKDIIS        .... off
 Trust-Rad. Augm. Hess. CNVTRAH         .... auto
   Auto Start mean grad. ratio tolernc. ....  1.125000
   Auto Start start iteration           ....    50
   Auto Start num. interpolation iter.  ....    10
   Max. Number of Micro iterations      ....    24
   Max. Number of Macro iterations      .... Maxiter - #DIIS iter
   Number of Davidson start vectors     ....     2
   Converg. threshold    (grad. norm)   ....   5.000e-05
   Grad. Scal. Fac. for Micro threshold ....   0.100
   Minimum threshold for Micro iter.    ....   1.000e-02
   NR start threshold (gradient norm)   ....   1.000e-04
   Initial trust radius                 ....   0.400
   Minimum AH scaling param. (alpha)    ....   1.000
   Maximum AH scaling param. (alpha)    .... 1000.000
   Quad. conv. algorithm                .... NR
   White noise on init. David. guess    .... on
   Maximum white noise                  ....   0.010
   Pseudo random numbers                .... off
   Inactive MOs                         .... canonical
   Orbital update algorithm             .... Taylor
   Preconditioner                       .... Diag
   Full preconditioner red. dimension   ....   250
 SOSCF                  CNVSOSCF        .... on
   Start iteration      SOSCFMaxIt      ....   150
   Startup grad/error   SOSCFStart      ....  0.003300
   Hessian update       SOSCFHessUp     .... L-BFGS
 Level Shifting         CNVShift        .... on
   Level shift para.    LevelShift      ....    0.2500
   Turn off err/grad.   ShiftErr        ....    0.0010
 Zerner damping         CNVZerner       .... off
 Static damping         CNVDamp         .... on
   Fraction old density DampFac         ....    0.7000
   Max. Damping (<1)    DampMax         ....    0.9800
   Min. Damping (>=0)   DampMin         ....    0.0000
   Turn off err/grad.   DampErr         ....    0.1000

SCF Procedure:
 Maximum # iterations   MaxIter         ....   125
 SCF integral mode      SCFMode         .... Direct
   Integral package                     .... SHARK and LIBINT hybrid scheme
 Reset frequency        DirectResetFreq ....    20
 Integral Threshold     Thresh          ....  1.000e-10 Eh
 Primitive CutOff       TCut            ....  1.000e-11 Eh

Convergence Tolerance:
 Convergence Check Mode ConvCheckMode   .... Total+1el-Energy
 Convergence forced     ConvForced      .... 0
 Energy Change          TolE            ....  1.000e-06 Eh
 1-El. energy change                    ....  1.000e-03 Eh
 Orbital Gradient       TolG            ....  5.000e-05
 Orbital Rotation angle TolX            ....  5.000e-05
 DIIS Error             TolErr          ....  1.000e-06

------------------------------
INITIAL GUESS: MODEL POTENTIAL
------------------------------
Loading Hartree-Fock densities                     ... done
Calculating cut-offs                               ... done
Initializing the effective Hamiltonian             ... done
Setting up the integral package (SHARK)            ... done
Starting the Coulomb interaction                   ... done (   0.1 sec)
Making the grid                                    ... done (   0.3 sec)
Mapping shells                                     ... done
Starting the XC term evaluation                    ... done (   0.1 sec)
  promolecular density results
     # of electrons  =    157.998439662
     EX              =   -127.045347025
     EC              =      0.198878705
     EX+EC           =   -126.846468320
Transforming the Hamiltonian                       ... done (   0.1 sec)
Diagonalizing the Hamiltonian                      ... done (   0.1 sec)
Back transforming the eigenvectors                 ... done (   0.1 sec)
Now organizing SCF variables                       ... done
                      ------------------
                      INITIAL GUESS DONE (   0.9 sec)
                      ------------------
             **** ENERGY FILE WAS UPDATED (hc_c24h14_0pent_13_tz_ri.en.tmp) ****
Finished Guess after  15.6 sec
Maximum memory used throughout the entire GUESS-calculation: 67.8 MB


           ************************************************************
           *        Program running with 104 parallel MPI-processes   *
           *              working on a common directory               *
           ************************************************************

-------------------------------------------------------------------------------------------
                                      ORCA LEAN-SCF
                              memory conserving SCF solver
-------------------------------------------------------------------------------------------

----------------------------------------D-I-I-S--------------------------------------------
Iteration    Energy (Eh)           Delta-E    RMSDP     MaxDP     DIISErr   Damp  Time(sec)
-------------------------------------------------------------------------------------------
               ***  Starting incremental Fock matrix formation  ***
    1    -918.9924284641222130     0.00e+00  9.86e-04  3.95e-02  1.41e-01  0.700   4.0
    2    -919.1736790092952560    -1.81e-01  8.65e-04  4.10e-02  8.95e-02  0.700   3.1
                               ***Turning on AO-DIIS***
    3    -919.2811458912526632    -1.07e-01  5.79e-04  2.69e-02  5.19e-02  0.700   2.9
    4    -919.3483117048374424    -6.72e-02  1.49e-03  9.61e-02  3.54e-02  0.000   2.8
                              *** Initializing SOSCF ***
---------------------------------------S-O-S-C-F--------------------------------------
Iteration    Energy (Eh)           Delta-E    RMSDP     MaxDP     MaxGrad    Time(sec)
--------------------------------------------------------------------------------------
    5    -919.4947313478894557    -1.46e-01  1.96e-04  1.79e-02  2.89e-03     3.1
               *** Restarting incremental Fock matrix formation ***
    6    -919.4950647909338386    -3.33e-04  2.30e-04  1.66e-02  1.33e-03     8.2
    7    -919.4951901344541056    -1.25e-04  1.53e-04  9.35e-03  8.87e-04     3.1
    8    -919.4952223130146649    -3.22e-05  1.08e-04  6.81e-03  5.58e-04     3.1
    9    -919.4952340513148101    -1.17e-05  4.47e-05  2.01e-03  1.20e-04     3.3
   10    -919.4952348989611437    -8.48e-07  2.99e-05  1.85e-03  5.81e-05     2.9
                 **** Energy Check signals convergence ****

               *****************************************************
               *                     SUCCESS                       *
               *           SCF CONVERGED AFTER  10 CYCLES          *
               *****************************************************

Recomputing exchange energy using gridx3       ... done (    3.009 sec)
Old exchange energy                            :    -89.566591956 Eh
New exchange energy                            :    -89.566597732 Eh
Exchange energy change after final integration :     -0.000005776 Eh
Total energy after final integration           :   -919.495240675 Eh
             **** ENERGY FILE WAS UPDATED (hc_c24h14_0pent_13_tz_ri.en.tmp) ****

----------------
TOTAL SCF ENERGY
----------------

Total Energy       :       -919.49524067516529 Eh          -25020.73753 eV

Components:
Nuclear Repulsion  :       1833.72427927247668 Eh           49898.17441 eV
Electronic Energy  :      -2753.21951417143782 Eh          -74918.91178 eV
One Electron Energy:      -4888.03552213171042 Eh         -133010.20867 eV
Two Electron Energy:       2134.81600796027260 Eh           58091.29688 eV

Virial components:
Potential Energy   :      -1837.07003010905783 Eh          -49989.21692 eV
Kinetic Energy     :        917.57478943389265 Eh           24968.47939 eV
Virial Ratio       :          2.00209296426121

DFT components:
N(Alpha)           :       79.000007280865 electrons
N(Beta)            :       79.000007280865 electrons
N(Total)           :      158.000014561730 electrons
E(X)               :      -40.065622101485 Eh       
E(C)               :       -2.356446272892 Eh       
E(XC)              :      -42.422068374378 Eh       

---------------
SCF CONVERGENCE
---------------

  Last Energy change         ...    8.4765e-07  Tolerance :   1.0000e-06
  Last MAX-Density change    ...    1.8492e-03  Tolerance :   1.0000e-05
  Last RMS-Density change    ...    2.9919e-05  Tolerance :   1.0000e-06
  Last DIIS Error            ...    2.8879e-03  Tolerance :   1.0000e-06
  Last Orbital Gradient      ...    5.8077e-05  Tolerance :   5.0000e-05
  Last Orbital Rotation      ...    2.5022e-04  Tolerance :   5.0000e-05


----------------
ORBITAL ENERGIES
----------------

  NO   OCC          E(Eh)            E(eV) 
   0   2.0000     -10.836454      -294.8749 
   1   2.0000     -10.833783      -294.8022 
   2   2.0000     -10.833610      -294.7975 
   3   2.0000     -10.832871      -294.7774 
   4   2.0000     -10.832835      -294.7764 
   5   2.0000     -10.831604      -294.7429 
   6   2.0000     -10.830033      -294.7002 
   7   2.0000     -10.829905      -294.6967 
   8   2.0000     -10.829509      -294.6859 
   9   2.0000     -10.829084      -294.6744 
  10   2.0000     -10.821454      -294.4667 
  11   2.0000     -10.821404      -294.4654 
  12   2.0000     -10.821388      -294.4649 
  13   2.0000     -10.821020      -294.4549 
  14   2.0000     -10.820784      -294.4485 
  15   2.0000     -10.820499      -294.4407 
  16   2.0000     -10.820415      -294.4385 
  17   2.0000     -10.820188      -294.4323 
  18   2.0000     -10.819879      -294.4239 
  19   2.0000     -10.819641      -294.4174 
  20   2.0000     -10.819477      -294.4129 
  21   2.0000     -10.818853      -294.3960 
  22   2.0000     -10.818410      -294.3839 
  23   2.0000     -10.817308      -294.3539 
  24   2.0000      -1.097894       -29.8752 
  25   2.0000      -1.068148       -29.0658 
  26   2.0000      -1.046836       -28.4859 
  27   2.0000      -1.016891       -27.6710 
  28   2.0000      -0.995085       -27.0776 
  29   2.0000      -0.984562       -26.7913 
  30   2.0000      -0.944226       -25.6937 
  31   2.0000      -0.921819       -25.0840 
  32   2.0000      -0.920179       -25.0393 
  33   2.0000      -0.908984       -24.7347 
  34   2.0000      -0.898648       -24.4534 
  35   2.0000      -0.851667       -23.1750 
  36   2.0000      -0.807067       -21.9614 
  37   2.0000      -0.779946       -21.2234 
  38   2.0000      -0.772475       -21.0201 
  39   2.0000      -0.770665       -20.9709 
  40   2.0000      -0.742990       -20.2178 
  41   2.0000      -0.730117       -19.8675 
  42   2.0000      -0.684830       -18.6352 
  43   2.0000      -0.678232       -18.4556 
  44   2.0000      -0.654637       -17.8136 
  45   2.0000      -0.642275       -17.4772 
  46   2.0000      -0.631648       -17.1880 
  47   2.0000      -0.614332       -16.7168 
  48   2.0000      -0.597109       -16.2482 
  49   2.0000      -0.581723       -15.8295 
  50   2.0000      -0.576376       -15.6840 
  51   2.0000      -0.570620       -15.5274 
  52   2.0000      -0.561766       -15.2864 
  53   2.0000      -0.543388       -14.7863 
  54   2.0000      -0.533311       -14.5121 
  55   2.0000      -0.533252       -14.5105 
  56   2.0000      -0.525637       -14.3033 
  57   2.0000      -0.517887       -14.0924 
  58   2.0000      -0.508978       -13.8500 
  59   2.0000      -0.505392       -13.7524 
  60   2.0000      -0.494579       -13.4582 
  61   2.0000      -0.485235       -13.2039 
  62   2.0000      -0.478597       -13.0233 
  63   2.0000      -0.476434       -12.9644 
  64   2.0000      -0.462446       -12.5838 
  65   2.0000      -0.453868       -12.3504 
  66   2.0000      -0.444806       -12.1038 
  67   2.0000      -0.438102       -11.9214 
  68   2.0000      -0.422117       -11.4864 
  69   2.0000      -0.415923       -11.3179 
  70   2.0000      -0.407995       -11.1021 
  71   2.0000      -0.394933       -10.7467 
  72   2.0000      -0.377449       -10.2709 
  73   2.0000      -0.341094        -9.2816 
  74   2.0000      -0.311072        -8.4647 
  75   2.0000      -0.301598        -8.2069 
  76   2.0000      -0.293054        -7.9744 
  77   2.0000      -0.283471        -7.7136 
  78   2.0000      -0.212102        -5.7716 
  79   0.0000      -0.025926        -0.7055 
  80   0.0000       0.039434         1.0730 
  81   0.0000       0.047721         1.2986 
  82   0.0000       0.062450         1.6993 
  83   0.0000       0.063973         1.7408 
  84   0.0000       0.094796         2.5795 
  85   0.0000       0.113906         3.0995 
  86   0.0000       0.118349         3.2204 
  87   0.0000       0.119054         3.2396 
  88   0.0000       0.130250         3.5443 
  89   0.0000       0.131109         3.5676 
*Only the first 10 virtual orbitals were printed.
-------
TIMINGS
-------

Total SCF time: 0 days 0 hours 0 min 55 sec 

Total time                  ....      55.080 sec
Sum of individual times     ....      54.609 sec  ( 99.1%)

SCF preparation             ....      14.819 sec  ( 26.9%)
Fock matrix formation       ....      32.048 sec  ( 58.2%)
  Startup                   ....       0.987 sec  (  3.1% of F)
  Split-RI-J                ....       2.757 sec  (  8.6% of F)
  Chain of spheres X        ....      17.088 sec  ( 53.3% of F)
  XC integration            ....       9.408 sec  ( 29.4% of F)
    XC Preparation          ....       0.000 sec  (  0.0% of XC)
    Basis function eval.    ....       0.465 sec  (  4.9% of XC)
    Density eval.           ....       0.590 sec  (  6.3% of XC)
    XC-Functional eval.     ....       0.032 sec  (  0.3% of XC)
    XC-Potential eval.      ....       0.495 sec  (  5.3% of XC)
Diagonalization             ....       0.000 sec  (  0.0%)
Density matrix formation    ....       1.403 sec  (  2.5%)
Total Energy calculation    ....       0.945 sec  (  1.7%)
Population analysis         ....       0.000 sec  (  0.0%)
Orbital Transformation      ....       0.715 sec  (  1.3%)
Orbital Orthonormalization  ....       0.000 sec  (  0.0%)
DIIS solution               ....       2.826 sec  (  5.1%)
SOSCF solution              ....       1.785 sec  (  3.2%)
Finished LeanSCF after  55.5 sec

Maximum memory used throughout the entire LEANSCF-calculation: 137.8 MB


           ************************************************************
           *        Program running with 104 parallel MPI-processes   *
           *              working on a common directory               *
           ************************************************************

------------------------------------------------------------------------------
                                ORCA  MP2 
------------------------------------------------------------------------------


-------------
RI-MP2 ENERGY
-------------
Dimension of the orbital basis            ...  828
Dimension of the AuxC basis               ... 2034
Memory devoted to MP2                     ... 4096 MB   
Data format for matrix containers         ... DOUBLE
Compression type for matrix containers    ... UNCOMPRESSED
Scaling for aa/bb pairs                   ...   5.710e-02
Scaling for ab pairs                      ...   5.979e-01
Overall scaling of the MP2 energy         ...   1.000e+00

-----------------------
SHARK RI TRANSFORMATION
-----------------------

Number of basis functions                ...    828
Number of aux functions                  ...   2034
Number of operators                      ...      1
Generation of IJK                        ... NO
Generation of IAK                        ... YES
Generation of ABK                        ... NO
Orbital Range Operator  0:    0-  78 to   79- 827

Aux basis identifier                     ...   AUXC
Contraction scheme used                  ... SEGMENTED
Do orthogonalization                     ... YES
All operator combinations                ... NO
Transpose (ia|K)                         ... NO
Integral generator used                  ... LIBINT
Starting integral generation + trafo... 
Half trafo (segmented) done. Total time =  0.8 sec. integrals=  0.3 sec trafo=  0.3 sec
Integral generation and half transformation done (  0.8 sec)

Reading or making V^(-1/2)          ... done (  0.1 sec)
Sorting IAK integrals               ... done (  1.7 sec)

SHARK RI integral transformation done. Total time =  2.7 sec.

Opening buffers                              ... done

Starting loop over batches of integrals:

Operator 0  - window                       ... (  0- 78)x( 79-827)
Operator 0  - Memory available             ...  4096 MB
Operator 0  - Memory needed per MO         ...  11.6 MB
Operator 0  - Number of orbitals per batch ... 1
Operator 0  - Number of batches            ... 1

OPERATOR  0   PASS   0:  MOs     0 ...    0 +    1 ...    1 +    2 ...    2 +    3 ...    3
                            +    4 ...    4 +    5 ...    5 +    6 ...    6 +    7 ...    7
                            +    8 ...    8 +    9 ...    9 +   10 ...   10 +   11 ...   11
                            +   12 ...   12 +   13 ...   13 +   14 ...   14 +   15 ...   15
                            +   16 ...   16 +   17 ...   17 +   18 ...   18 +   19 ...   19
                            +   20 ...   20 +   21 ...   21 +   22 ...   22 +   23 ...   23
                            +   24 ...   24 +   25 ...   25 +   26 ...   26 +   27 ...   27
                            +   28 ...   28 +   29 ...   29 +   30 ...   30 +   31 ...   31
                            +   32 ...   32 +   33 ...   33 +   34 ...   34 +   35 ...   35
                            +   36 ...   36 +   37 ...   37 +   38 ...   38 +   39 ...   39
                            +   40 ...   40 +   41 ...   41 +   42 ...   42 +   43 ...   43
                            +   44 ...   44 +   45 ...   45 +   46 ...   46 +   47 ...   47
                            +   48 ...   48 +   49 ...   49 +   50 ...   50 +   51 ...   51
                            +   52 ...   52 +   53 ...   53 +   54 ...   54 +   55 ...   55
                            +   56 ...   56 +   57 ...   57 +   58 ...   58 +   59 ...   59
                            +   60 ...   60 +   61 ...   61 +   62 ...   62 +   63 ...   63
                            +   64 ...   64 +   65 ...   65 +   66 ...   66 +   67 ...   67
                            +   68 ...   68 +   69 ...   69 +   70 ...   70 +   71 ...   71
                            +   72 ...   72 +   73 ...   73 +   74 ...   74 +   75 ...   75
                            +   76 ...   76 +   77 ...   77 +   78 ...   78
  Reading integrals       ... ok
Time spent in pair loops =     4.663 sec

-----------------------------------------------
 RI-MP2 CORRELATION ENERGY:     -2.142603523 Eh
-----------------------------------------------


-------
TIMINGS
-------

Total time                :    8.333 sec
Integral trafo            :    2.810 sec ( 33.7%)
I/O of integrals          :    0.003 sec (  0.0%)
K(i,j) operators          :    0.046 sec (  0.5%)
T(i,j) pair energies      :    0.007 sec (  0.1%)
V**(-1/2)                 :    0.858 sec ( 10.3%)


---------------------------------------
MP2 TOTAL ENERGY:     -921.637844199 Eh
---------------------------------------

Maximum memory used throughout the entire MP2-calculation: 112.7 MB


-------------------------------------------------------------------------------
                          DFT DISPERSION CORRECTION                            
                                                                               
                                DFTD4 V3.4.0                                   
-------------------------------------------------------------------------------
The REV-DSD-PBEP86-2021 functional is recognized
A user input s6-coefficient scaling factor has been recognized
A user input a1-coefficient scaling factor has been recognized
A user input s8-coefficient scaling factor has been recognized
A user input a2-coefficient scaling factor has been recognized
A user input s9-coefficient scaling factor has been recognized
Active option DFTDOPT                   ...         5   

-------------------------   ----------------
Dispersion correction           -0.038702611
-------------------------   ----------------


-------------------------   --------------------
FINAL SINGLE POINT ENERGY      -921.676546809933
-------------------------   --------------------



           ************************************************************
           *        Program running with 104 parallel MPI-processes   *
           *              working on a common directory               *
           ************************************************************

------------------------------------------------------------------------------
                              ORCA PROPERTY CALCULATIONS
------------------------------------------------------------------------------

GBWName                                 ... hc_c24h14_0pent_13_tz_ri.gbw
Number of atoms                         ...     38
Number of basis functions               ...    828
Max core memory                         ...   1024 MB

Electric properties:
Dipole moment                           ... YES
Quadrupole moment                       ...  NO
Static polarizability (Dipole/Dipole)   ...  NO
Static polarizability (Dipole/Quad.)    ...  NO
Static polarizability (Quad./Quad.)     ...  NO
Static polarizability (Velocity)        ...  NO

Atomic electric properties:
Dipole moment                           ...  NO
Quadrupole moment                       ...  NO
Static polarizability                   ...  NO

Choice of electric origin               ... Center of mass
Position of electric origin             ...    -0.086046    -0.003962    -0.027234

General magnetic properties:
Magnetizability                         ...  NO

EPR properties:
g-Tensor (aka g-matrix)                 ...  NO
Zero-Field splitting spin-orbit         ...  NO
Zero-field splitting spin-spin          ...  NO
Hyperfine couplings                     ...  NO (   0 nuclei)
Quadrupole couplings                    ...  NO (   0 nuclei)
Contact density                         ...  NO (   0 nuclei)

NMR properties:
Chemical shifts                         ...  NO (   0 nuclei)
Spin-rotation constants                 ...  NO (   0 nuclei)
Spin-spin couplings                     ...  NO (   0 nuclei,    0 pairs)

Choice of magnetic origin               ... GIAO
Position of magnetic origin             ...     0.000000     0.000000     0.000000

Properties with geometric perturbations:
SCF Hessian                             ...  NO
IR spectrum                             ...  NO
VCD spectrum                            ...  NO
X-ray spectroscopy properties:
SCF XES/XAS/RIXS spectra                ...  NO


-------------
DIPOLE MOMENT
-------------

Method             : SCF
Type of density    : Electron Density
Multiplicity       :   1
Irrep              :   0
Energy             :  -919.4952406751652916 Eh
Relativity type    : 
Basis              : AO
                                X                 Y                 Z
Electronic contribution:     -1.779961049      -0.033676150      -0.564247899
Nuclear contribution   :      1.769977275       0.083636577       0.561873737
                        -----------------------------------------
Total Dipole Moment    :     -0.009983774       0.049960427      -0.002374162
                        -----------------------------------------
Magnitude (a.u.)       :      0.051003497
Magnitude (Debye)      :      0.129640586



--------------------
Rotational spectrum 
--------------------
 
Rotational constants in cm-1:             0.013068             0.007900             0.005084 
Rotational constants in MHz :           391.774566           236.823889           152.421221 

Dipole components along the rotational axes: 
x,y,z [a.u.] :     0.048947     0.011183     0.008970 
x,y,z [Debye]:     0.124414     0.028426     0.022801 

 

Dipole moment calculation done in   0.1 sec 

Maximum memory used throughout the entire PROP-calculation: 71.0 MB

--------------------------------
SUGGESTED CITATIONS FOR THIS RUN
--------------------------------

Below you find a list of papers that are relevant to this ORCA run
We neither can nor want to force you to cite these papers, but we appreciate if you do
You receive ORCA, which is the product of decades of hard work by many enthusiastic individuals, for free
The only thing we kindly ask in return is that you cite our papers,
We deeply appreciate it, if you show your appreciation for ORCA by not just citing the generic ORCA reference.

Please note that relegating all ORCA citations to the supporting information does *not* help us.
SI sections are not indexed - citations you put there will not count into any citation statistics
But we need these citations in order to attract the funding resources that allow us to do what we are doing

Therefore, if you are a happy ORCA user, please consider citing a few of the papers listed below in the main body of your paper

In addition to the list printed below, the program has created the file hc_c24h14_0pent_13_tz_ri.bibtex that contains the list in bibtex format
You can import this file easily into all common literature databanks and citation aid programs


List of essential papers. We consider these as the minimum necessary citations

  1. Neese,F.
     Software update: the ORCA program system, version 5.0
     WIRES Comput. Molec. Sci., 2022 12(1)e1606
     doi.org/10.1002/wcms.1606

List of papers to cite with high priority. The work reported in these papers was absolutely
necessary for this run to complete.
Our perspective: the developers of density functionals and basis sets usually get cited in chemistry papers
Good! But without the algorithms to do something with them, the functionals or basis sets would not do anything.
Hence, in our opinion, the algorithm design and method developments papers are equally worthy of getting cited

  1. Neese,F.
     An improvement of the resolution of the identity approximation for the formation of the Coulomb matrix
     J. Comp. Chem., 2003 24(14)1740-1747
     doi.org/10.1002/jcc.10318
  2. Neese,F.; Wennmohs,F.; Hansen,A.; Becker,U.
     Efficient, approximate and parallel Hartree-Fock and hybrid DFT calculations. A 'chain-of-spheres' algorithm for the Hartree-Fock exchange
     Chem. Phys., 2009 356(1-3)98-109
     doi.org/10.1016/j.chemphys.2008.10.036
  3. Kossmann,S.; Neese,F.
     Efficient Structure Optimization with Second-Order Many-Body Perturbation Theory: The RIJCOSX-MP2 Method
     J. Theo. Comp. Chem., 2010 6 2325-2338
     doi.org/10.1021/ct100199k
  4. Helmich-Paris,B.; de Souza,B.; Neese,F.; Izsák,R.
     An improved chain of spheres for exchange algorithm
     J. Chem. Phys., 2021 155 104109
     doi.org/doi: 10.1063/5.0058766.
  5. Neese,F.
     The SHARK Integral Generation and Digestion System
     J. Comp. Chem., 2022  1-16
     doi.org/10.1002/jcc.26942
  6. Caldeweyher,E.; Bannwarth,C.; Grimme,S.
     Extension of the D3 dispersion coefficient model
     J. Chem. Phys., 2017 147 034112
     doi.org/10.1063/1.4993215
  7. Caldeweyher,E.; Ehlert,S.; Hansen,A.; Neugebauer,H.; Spicher,S.; Bannwarth,C.; Grimme,S.
     A generally applicable atomic-charge dependent London dispersion correction
     J. Chem. Phys., 2019 150 154122
     doi.org/10.1063/1.5090222
  8. Caldeweyher,E.; Mewes,J.; Ehlert,S.; Grimme,S.
     Extension and evaluation of the D4 London-dispersion model for periodic systems
     Phys. Chem. Chem. Phys., 2020 22(16)8499-8512
     doi.org/10.1039/D0CP00502A
  9. Wittmann,L.; Gordiy,I.; Friede,M.; Helmich-Paris,B.; Grimme,S.; Hansen,A.; Bursch,M.
     Extension of the D3 and D4 London Dispersion Corrections to the full Actinides Series
     Phys. Chem. Chem. Phys., 2024 26(32)21379-21394
     doi.org/https://doi.org/10.1039/D4CP01514B 

List of suggested additional citations. These are papers that are important in the 'surrounding' of 
of this run, or papers that preceded the highly important papers. If you like your results we are grateful for a citation.

  1. Izsak,R.; Neese,F.
     An overlap fitted chain of spheres exchange method
     J. Chem. Phys., 2011 135 144105
     doi.org/10.1063/1.3646921
  2. Izsak,R.; Hansen,A.; Neese,F.
     The resolution of identity and chain of spheres approximations for the LPNO-CCSD singles Fock term
     Molec. Phys., 2012 110 2413-2417
     doi.org/10.1080/00268976.2012.687466
  3. Neese,F.
     The ORCA program system
     WIRES Comput. Molec. Sci., 2012 2(1)73-78
     doi.org/10.1002/wcms.81
  4. Izsak,R.; Neese,F.; Klopper,W.
     Robust fitting techniques in the chain of spheres approximation to the Fock exchange: The role of the complementary space
     J. Chem. Phys., 2013 139 
     doi.org/10.1063/1.4819264
  5. Neese,F.
     Software update: the ORCA program system, version 4.0
     WIRES Comput. Molec. Sci., 2018 8(1)1-6
     doi.org/10.1002/wcms.1327
  6. Neese,F.; Wennmohs,F.; Becker,U.; Riplinger,C.
     The ORCA quantum chemistry program package
     J. Chem. Phys., 2020 152 Art. No. L224108
     doi.org/10.1063/5.0004608

List of optional additional citations

  1. Neese,F.
     Approximate second-order SCF convergence for spin unrestricted wavefunctions
     Chem. Phys. Lett., 2000 325(1-3)93-98
     doi.org/10.1016/s0009-2614(00)00662-x

Timings for individual modules:

Sum of individual times          ...      140.173 sec (=   2.336 min)
Startup calculation              ...       24.955 sec (=   0.416 min)  17.8 %
SCF iterations                   ...       74.292 sec (=   1.238 min)  53.0 %
Property calculations            ...       16.271 sec (=   0.271 min)  11.6 %
MP2 module                       ...       24.655 sec (=   0.411 min)  17.6 %
                             ****ORCA TERMINATED NORMALLY****
TOTAL RUN TIME: 0 days 0 hours 2 minutes 47 seconds 651 msec
