242
2vta_active_dlpno-mp2_tzvp_rijcosx_tpno.out	Energy:   -5215.3896851
N         26.39900       11.91800       68.41300
C         27.38800       11.47900       67.41900
C         27.17400       12.12200       66.04700
O         28.08200       12.08000       65.21700
C         27.50700        9.94100       67.26000
C         26.68600        9.11300       68.25600
C         28.99800        9.59400       67.38300
C         26.72900        7.60600       67.98200
H         25.55400       11.37400       68.51700
H         26.55900       12.74100       68.97600
H         28.34900       11.84700       67.77600
H         26.23800       12.60600       65.81000
H         27.17300        9.66300       66.25900
H         25.64400        9.42200       68.19300
H         27.06200        9.31500       69.25800
H         29.33300        9.81100       68.39900
H         29.57600       10.19100       66.67600
H         29.17800        8.54600       67.15600
H         26.35300        7.39600       66.98300
H         26.12800        7.07700       68.72000
H         27.74100        7.23300       68.03600
N         21.59700       11.12000       65.77400
C         22.23500        9.94600       66.35200
C         22.87600       10.33800       67.68400
O         23.53700       11.37300       67.78200
C         23.25700        9.30700       65.38900
C         23.62900        7.90700       65.90200
C         22.71000        9.16700       63.96000
H         22.20900       11.83000       65.39600
H         20.59200       11.21900       65.75100
H         21.46400        9.20400       66.53900
H         22.74800        9.70100       68.54700
H         24.15700        9.92400       65.35500
H         22.74200        7.27400       65.94900
H         24.06600        7.97200       66.89700
H         24.36000        7.44900       65.23700
H         21.79500        8.57700       63.97100
H         23.44900        8.67400       63.32900
H         22.50500       10.15000       63.53500
N         24.78000        3.16800       69.24100
C         24.36500        4.38800       68.57900
C         22.85300        4.35100       68.42000
O         22.28200        3.33900       68.02600
C         25.08000        4.53500       67.24700
H         24.64600        2.30200       68.73600
H         25.18600        3.18200       70.16500
H         24.63500        5.24800       69.19200
H         22.27200        5.23000       68.65800
H         24.84800        3.68600       66.60900
H         26.15200        4.57900       67.42200
H         24.75700        5.45300       66.76100
N         19.61200        6.16000       66.88100
C         19.12000        7.04800       65.85000
C         17.62700        7.28100       66.01900
O         16.82300        6.38300       65.79200
C         19.47500        6.49000       64.47800
C         19.03800        7.48900       63.40600
C         19.47800        7.00000       62.03300
C         19.15600        8.08500       61.01800
N         19.48800        7.63700       59.65800
H         19.49700        5.16300       66.75100
H         20.05900        6.52600       67.70900
H         19.62800        8.00800       65.94400
H         17.27100        8.24800       66.34300
H         18.97300        5.53600       64.32300
H         20.55500        6.34300       64.42300
H         19.48300        8.46400       63.61100
H         17.95300        7.59200       63.41700
H         18.96300        6.07100       61.78500
H         20.55600        6.83200       62.03400
H         19.74500        8.96700       61.27000
H         18.09900        8.35000       61.07100
H         20.35500        7.11700       59.66500
H         19.58300        8.43900       59.05400
N         27.31200       -2.20100       59.69600
C         26.99400       -1.81300       61.06900
C         25.68900       -2.50300       61.45900
O         24.66600       -2.30100       60.80300
C         26.85300       -0.28300       61.18200
C         26.47600        0.15000       62.60800
C         28.15900        0.41500       60.78900
H         27.35500       -1.46700       59.00300
H         27.48400       -3.16500       59.44900
H         27.79800       -2.14300       61.72800
H         25.66400       -3.16800       62.31000
H         26.06600        0.05300       60.50600
H         27.25100       -0.15800       63.31100
H         25.52900       -0.30200       62.90100
H         26.36200        1.23300       62.65100
H         28.96800        0.10500       61.44800
H         28.01500        1.48300       60.87800
H         28.42400        0.19500       59.75800
N         21.84900        0.78300       66.85900
C         22.95300        0.23500       66.08700
C         24.11300       -0.13700       66.99800
O         24.34800        0.49200       68.02900
C         23.43100        1.23300       65.02400
C         22.46200        1.46600       63.88800
C         22.28100        0.47200       62.90900
C         21.75500        2.67900       63.79500
C         21.37500        0.67900       61.85800
C         20.85600        2.88800       62.73500
C         20.65900        1.88400       61.77200
H         21.99600        1.68400       67.28900
H         20.97600        0.28500       66.96100
H         22.61900       -0.66500       65.57400
H         24.36100        0.86300       64.59200
H         23.65700        2.18200       65.50600
H         22.83700       -0.45200       62.96100
H         21.90600        3.45400       64.53300
H         21.22300       -0.09300       61.12000
H         20.31700        3.82000       62.66200
H         19.96100        2.03800       60.96200
N         24.90500       -1.09800       66.52000
C         26.28500       -1.30500       66.91100
C         27.01800        0.04100       66.86500
O         26.90000        0.78700       65.89200
C         26.89500       -2.32700       65.93600
C         28.42800       -2.34000       65.95200
C         29.05400       -3.30900       64.95200
O         28.41100       -3.63800       63.92900
O         30.21900       -3.68100       65.20600
H         24.59300       -1.60200       65.70300
H         26.31900       -1.70900       67.92200
H         26.56200       -2.08800       64.92500
H         26.53000       -3.32000       66.19900
H         28.76800       -2.58700       66.95800
H         28.79300       -1.34900       65.70100
H         30.61400       -4.25700       64.54800
N         27.79300        0.32500       67.91500
C         28.55500        1.55400       68.04100
C         30.00400        1.34100       67.60900
O         30.67900        0.42800       68.08800
C         28.45400        2.09000       69.46900
C         29.27400        3.34200       69.70100
C         28.73700        4.61200       69.41800
C         30.59700        3.23100       70.16500
C         29.52700        5.76100       69.60400
C         31.38500        4.38100       70.32400
C         30.85400        5.64600       70.03600
H         27.86900       -0.34900       68.66400
H         28.10800        2.30300       67.39200
H         28.77200        1.31700       70.17000
H         27.41300        2.31600       69.67300
H         27.72300        4.70500       69.05900
H         31.01600        2.25900       70.37800
H         29.12600        6.74200       69.42900
H         32.39900        4.29300       70.67100
H         31.45500        6.53400       70.16200
N         30.49300        2.26400       66.77500
C         31.89700        2.41700       66.42900
C         32.32000        3.85500       66.71600
O         31.52300        4.79000       66.61200
C         32.17900        2.03100       64.96800
C         31.97800        0.53200       64.66200
C         30.54100        0.22900       64.22000
C         32.91900        0.06200       63.54500
H         29.86400        2.97500       66.42400
H         32.48600        1.76500       67.07100
H         33.33700        4.05800       67.01600
H         33.21700        2.29400       64.76100
H         31.54500        2.63100       64.31900
H         32.20800       -0.04600       65.55800
H         30.31600        0.76100       63.29800
H         29.83000        0.54000       64.98000
H         30.42600       -0.84100       64.05400
H         32.68800        0.57200       62.61100
H         32.81500       -1.01400       63.40800
H         33.94900        0.27900       63.81800
N         32.17100        3.57500       58.98200
C         32.66200        3.57400       60.35800
C         33.81400        2.58700       60.52100
O         33.71300        1.44900       60.07400
C         31.54300        3.26000       61.36000
C         30.22600        4.04200       61.20300
C         29.27200        3.63500       62.32700
C         30.40200        5.56300       61.24700
H         31.59000        2.80100       58.69500
H         32.40400        4.32100       58.34200
H         33.03400        4.56400       60.60000
H         34.71700        2.88900       61.03000
H         31.94700        3.46300       62.35100
H         31.31100        2.19700       61.29500
H         29.77300        3.77600       60.24900
H         29.67100        3.95800       63.28700
H         29.15400        2.55600       62.35700
H         28.29900        4.09300       62.15800
H         30.86600        5.86100       62.18800
H         29.43000        6.05000       61.15800
H         31.02200        5.88200       60.41400
N         27.31900        2.05100       57.41200
C         26.23300        2.51600       58.27800
C         25.08300        3.08300       57.45000
O         25.31800        3.60900       56.36900
C         26.74000        3.58200       59.25200
H         27.89200        2.76600       56.98500
H         27.48700        1.06900       57.25100
H         25.85900        1.67800       58.86400
H         27.03200        4.47900       58.71300
H         27.60300        3.21700       59.79300
H         25.95000        3.83300       59.96100
N         23.86500        3.06400       58.00300
C         22.63700        3.54800       57.36700
C         22.25900        2.82100       56.06200
O         21.61900        3.40200       55.18800
C         22.62100        5.09000       57.24800
C         22.56500        5.82900       58.59100
O         21.95200        5.29400       59.54200
O         23.07800        6.96900       58.63900
H         23.76300        2.64100       58.91400
H         21.85500        3.27100       58.06600
H         22.55800        1.79300       55.91500
H         21.74200        5.39700       56.68100
H         23.49700        5.41900       56.68700
H         23.53600        7.32200       57.87200
O         30.00400        9.61100       63.52800
H         30.26300        9.40200       62.62900
H         30.33500        8.87600       64.04900
O         31.25800        7.62800       65.51100
H         31.97300        8.09100       65.95100
H         31.25200        6.76000       65.92100
O         31.91900        9.32300       68.13800
H         31.82500        9.95400       68.85200
H         31.03700        9.25300       67.76800
O         24.47900        9.70200       60.53000
H         25.39500        9.42100       60.51400
H         24.01300        9.01900       60.04400
C         26.62600        4.47700       64.24900
C         27.28300        5.67700       64.38600
C         26.83800        6.78800       63.64200
C         25.74700        6.63900       62.80100
C         25.08100        5.39300       62.68800
C         25.51500        4.29800       63.41200
N         27.30100        3.60900       65.06000
C         28.32200        5.45100       65.30500
N         28.33700        4.22000       65.71200
H         27.33600        7.71900       63.72500
H         25.40300        7.46300       62.23400
H         24.24600        5.30500       62.04000
H         25.03200        3.35800       63.33700
H         27.06500        2.60700       65.18400
H         29.01700        6.17800       65.63400
