349
2vth_active_dlpno-mp2_tzvp_rijcosx_tpno.out	Energy:   -8458.2362701
N         26.47300       12.31700       68.21900
C         27.55700       11.83300       67.35500
C         27.25800       12.01200       65.86000
O         28.09300       11.65400       65.03100
C         27.94400       10.37700       67.70400
C         26.82600        9.37700       67.32800
C         28.35000       10.27700       69.18400
C         27.10100        7.93600       67.77100
H         25.55200       11.92600       68.07300
H         26.64000       13.01300       68.93200
H         28.43800       12.44700       67.54700
H         28.82700       10.12300       67.11500
H         26.71000        9.37200       66.24300
H         25.88500        9.69800       67.77000
H         27.47600       10.38600       69.82500
H         29.07400       11.05500       69.42700
H         28.82300        9.31500       69.37200
H         28.06400        7.60600       67.38500
H         26.31700        7.28200       67.39600
H         27.10600        7.87300       68.85700
N         26.09600       12.57900       65.50800
C         25.75100       12.85000       64.12300
C         24.37600       13.48800       63.97800
O         23.41800       13.07000       64.62100
H         25.43800       12.85700       66.22200
H         25.76100       11.91400       63.56300
H         26.50300       13.51400       63.69600
H         24.24100       14.31900       63.30100
N         22.16400       12.94000       61.35100
C         21.87200       12.07100       60.22000
C         20.90600       12.73100       59.23400
O         20.17800       13.66000       59.58800
H         21.80000       12.67700       62.25700
H         22.71200       13.78000       61.23400
H         21.42500       11.15100       60.58700
H         22.80200       11.82000       59.71100
H         20.86100       12.37800       58.21400
N         21.53000       11.30500       65.80700
C         22.20600       10.10200       66.25300
C         22.94100       10.42900       67.54700
O         23.66000       11.42700       67.62600
C         23.17300        9.58900       65.16800
C         23.72300        8.20400       65.54400
C         22.45500        9.50600       63.81300
H         22.13200       12.06200       65.51400
H         20.52300       11.38100       65.79000
H         21.46300        9.32900       66.44000
H         22.83100        9.78000       68.40300
H         24.01300       10.28000       65.07300
H         22.91000        7.48100       65.61400
H         24.23800        8.25000       66.50200
H         24.43800        7.87100       64.78900
H         21.56000        8.89800       63.90400
H         23.10300        9.04800       63.08400
H         22.20000       10.50300       63.45200
N         24.84400        3.23500       68.96600
C         24.42000        4.44600       68.28200
C         22.89700        4.40800       68.13200
O         22.35300        3.50800       67.50100
C         25.13700        4.56300       66.94100
H         24.77400        2.36800       68.45100
H         25.19300        3.25900       69.91300
H         24.70400        5.31600       68.87300
H         22.29500        5.18100       68.58600
H         24.90400        3.70000       66.32100
H         26.21200        4.60800       67.11000
H         24.81600        5.47200       66.43300
N         19.63200        6.15200       66.80400
C         19.13000        7.05000       65.77900
C         17.62900        7.22400       65.95400
O         16.87000        6.27000       65.81600
C         19.50200        6.49600       64.40100
C         19.01400        7.41900       63.28400
C         19.53900        6.92300       61.93000
C         19.21100        7.90500       60.80900
N         19.75500        9.25200       61.06100
H         19.49600        5.16000       66.65900
H         20.09700        6.50400       67.62800
H         19.61000        8.02300       65.88500
H         17.22800        8.19500       66.20200
H         19.06000        5.51200       64.27000
H         20.58800        6.40400       64.34200
H         19.37200        8.42800       63.48300
H         17.92500        7.43600       63.26800
H         19.07600        5.96300       61.69900
H         20.62000        6.78600       61.97500
H         18.12800        7.96900       60.72100
H         19.61800        7.51900       59.87300
H         20.76000        9.20000       61.15800
H         19.36200        9.62500       61.91600
N         27.42900       -2.23400       59.42400
C         27.14400       -1.85000       60.80300
C         25.86200       -2.55400       61.23400
O         24.84100       -2.43500       60.55700
C         27.00100       -0.32300       60.92500
C         26.62500        0.08300       62.35600
C         28.31600        0.37100       60.55500
H         27.43800       -1.50600       58.72300
H         27.61100       -3.19700       59.17800
H         27.96900       -2.17800       61.43800
H         25.85000       -3.15500       62.13100
H         26.21500        0.02200       60.25000
H         27.40200       -0.23800       63.05000
H         25.67300       -0.36200       62.64500
H         26.52300        1.16400       62.40500
H         29.11800        0.02400       61.20500
H         28.19700        1.44000       60.67700
H         28.58000        0.17400       59.51800
N         21.91700        0.84400       66.57300
C         23.03000        0.30100       65.80900
C         24.21000       -0.02600       66.71800
O         24.40700        0.59700       67.75900
C         23.45100        1.28400       64.70800
C         22.46500        1.39900       63.56700
C         22.41200        0.38700       62.59100
C         21.61100        2.51400       63.46600
C         21.50000        0.48000       61.52900
C         20.70700        2.61100       62.39300
C         20.64600        1.59000       61.42900
H         22.04700        1.75700       66.98400
H         21.05400        0.33200       66.68700
H         22.71500       -0.62100       65.32400
H         24.40000        0.94900       64.29000
H         23.61500        2.26700       65.14500
H         23.07600       -0.46100       62.65100
H         21.65200        3.29800       64.20800
H         21.46300       -0.30000       60.78600
H         20.05900        3.47000       62.31100
H         19.94800        1.65800       60.60800
N         25.05200       -0.94600       66.24100
C         26.42000       -1.14400       66.69100
C         27.15000        0.20400       66.70200
O         27.09600        0.94800       65.72200
C         27.08700       -2.12800       65.71600
C         28.59400       -2.31900       65.93800
C         29.29200       -3.12400       64.83800
O         30.50100       -3.37600       65.03200
O         28.65700       -3.45800       63.81000
H         24.77700       -1.45300       65.41300
H         26.41300       -1.57300       67.69400
H         26.92400       -1.76500       64.70200
H         26.60000       -3.09600       65.81700
H         28.74600       -2.82000       66.89500
H         29.08600       -1.34900       65.98000
H         29.17000       -3.93600       63.15400
N         27.86100        0.48900       67.79800
C         28.67400        1.68200       67.94500
C         30.08000        1.43400       67.39500
O         30.75300        0.48900       67.80800
C         28.71600        2.12100       69.41100
C         29.48700        3.40700       69.62000
C         28.87800        4.65100       69.35900
C         30.83000        3.36100       70.03500
C         29.61200        5.83900       69.50800
C         31.55400        4.55300       70.18000
C         30.95400        5.78900       69.90700
H         27.88300       -0.18300       68.55300
H         28.20600        2.49200       67.39200
H         29.16500        1.32700       70.01000
H         27.69900        2.27200       69.76300
H         27.85000        4.69600       69.03200
H         31.31100        2.41200       70.22400
H         29.15600        6.79400       69.30800
H         32.57800        4.52100       70.49100
H         31.52200        6.70100       69.99600
N         30.55200        2.35300       66.54500
C         31.95700        2.49200       66.18100
C         32.39400        3.92300       66.49600
O         31.59500        4.85800       66.42900
C         32.21600        2.14200       64.70700
C         32.01600        0.65600       64.33500
C         30.56900        0.37200       63.90600
C         32.94900        0.26300       63.17800
H         29.93000        3.08500       66.22900
H         32.55600        1.82000       66.79700
H         33.25100        2.41300       64.49500
H         31.57600        2.76500       64.08700
H         32.26700        0.03100       65.19300
H         30.31200        0.98700       63.04500
H         29.87900        0.59500       64.71500
H         30.45800       -0.67900       63.64200
H         32.71600        0.84500       62.28800
H         32.84000       -0.79700       62.95400
H         33.98400        0.45000       63.45800
N         33.67000        4.08600       66.86100
C         34.16800        5.32800       67.45000
C         34.50100        6.40400       66.41100
O         34.64900        7.56500       66.78900
C         35.39500        5.02800       68.32400
C         35.10700        4.23600       69.57700
C         34.85000        2.89900       69.62400
N         35.07500        4.74300       70.87900
N         34.64700        2.57100       70.93800
C         34.78700        3.69200       71.66500
H         34.29900        3.29700       66.81600
H         33.39000        5.74000       68.09300
H         34.60400        6.14800       65.36700
H         35.82500        5.97800       68.63600
H         36.13800        4.49300       67.72900
H         34.79900        2.23600       68.78900
H         34.42200        1.65100       71.29200
H         34.65200        3.74400       72.73400
N         34.57300        7.69100       61.92400
C         34.18800        7.59900       60.51600
C         35.35400        7.94600       59.57800
O         36.36300        8.51400       60.00200
C         32.91900        8.42500       60.24600
C         33.12500        9.93300       60.37900
O         33.93400       10.47500       59.60500
O         32.44500       10.55200       61.22300
H         34.84700        8.60200       62.26800
H         34.56700        6.88100       62.52700
H         33.92900        6.56600       60.30400
H         35.28900        7.68800       58.53100
H         32.14100        8.10900       60.94100
H         32.56600        8.20800       59.23700
H         34.00700       11.42800       59.69800
N         31.19600        9.89000       55.64700
C         30.57500       10.07100       56.95400
C         29.81700        8.82000       57.41900
O         29.73900        8.59000       58.62100
C         29.60900       11.27100       56.93000
C         30.25900       12.62500       56.59800
C         30.53600       12.89500       55.10900
O         30.24000       12.10800       54.22300
N         31.10400       14.04600       54.79300
H         30.82500       10.43900       54.88400
H         31.96000        9.24500       55.51000
H         31.36400       10.27600       57.68000
H         29.17700       11.35800       57.92800
H         28.79100       11.07800       56.23900
H         31.18500       12.69900       57.16600
H         29.59900       13.41600       56.95600
H         31.38300       14.21000       53.83700
H         31.37400       14.69200       55.52000
N         29.28800        7.99500       56.50300
C         28.62400        6.73700       56.85000
C         29.46600        5.49600       56.52300
O         28.91900        4.40600       56.37300
C         27.16900        6.72200       56.35400
C         26.97600        6.74600       54.84100
O         27.77900        6.23300       54.06800
N         25.86500        7.33400       54.40900
H         29.38900        8.21600       55.52100
H         28.54000        6.70500       57.93500
H         26.65800        7.58200       56.78900
H         26.67100        5.83500       56.73800
H         25.67300        7.36300       53.41700
H         25.21300        7.72200       55.07300
N         30.79700        5.64400       56.49600
C         31.74300        4.53400       56.50900
C         32.49400        4.59800       57.83500
O         33.20200        5.56800       58.08500
C         32.70500        4.62000       55.31700
C         32.03400        4.69700       53.93700
C         33.11700        4.80100       52.86400
C         31.14100        3.49400       53.64400
H         31.18500        6.57000       56.61100
H         31.21100        3.58500       56.45100
H         33.34200        3.73700       55.34500
H         33.33400        5.50300       55.43800
H         31.42300        5.59000       53.88300
H         33.81800        3.97600       52.96000
H         33.65400        5.74000       52.98200
H         32.66400        4.76600       51.87500
H         31.71700        2.58000       53.73400
H         30.73900        3.57700       52.63500
H         30.30900        3.46000       54.34400
N         32.29800        3.60100       58.70100
C         32.76300        3.62900       60.08200
C         33.91400        2.65400       60.27000
O         33.84600        1.53200       59.77900
C         31.61500        3.31300       61.04600
C         30.36600        4.19900       60.89200
C         29.38600        3.86800       62.01700
C         30.66800        5.70200       60.93200
H         31.72900        2.81400       58.42200
H         33.12600        4.62500       60.32100
H         34.78800        2.94700       60.83300
H         32.00400        3.42800       62.05500
H         31.31600        2.27200       60.90700
H         29.88700        3.96900       59.94000
H         29.80600        4.16400       62.97900
H         29.17700        2.80300       62.04700
H         28.45500        4.40100       61.84100
H         31.17700        5.95700       61.86300
H         29.74000        6.27000       60.86200
H         31.29700        5.97800       60.08900
N         27.42100        2.04200       57.13300
C         26.33800        2.48400       58.00900
C         25.18700        3.04400       57.17700
O         25.42500        3.60500       56.11300
C         26.84900        3.55100       58.98200
H         27.95500        2.77100       56.68100
H         27.62400        1.06300       56.98800
H         25.97300        1.64200       58.59600
H         27.15300        4.44100       58.43700
H         27.70400        3.17700       59.53300
H         26.05800        3.81900       59.68300
N         23.96500        2.98600       57.71500
C         22.72900        3.50800       57.12800
C         22.32300        2.78800       55.83500
O         21.63900        3.36600       54.99300
C         22.77600        5.04700       56.99800
C         22.89700        5.79900       58.33000
O         22.60300        5.19900       59.39000
O         23.25800        6.99500       58.26700
H         23.86600        2.49100       58.59000
H         21.93900        3.27500       57.84200
H         22.64000        1.77000       55.66400
H         21.86600        5.39100       56.50600
H         23.61000        5.33000       56.35400
H         23.46800        7.38900       57.41700
O         31.60200        8.64900       66.85300
H         32.41600        8.14400       66.82300
H         31.53500        9.03400       65.97700
O         29.77900        9.91200       61.01600
H         29.79000        9.49200       60.15200
H         30.66700       10.26500       61.11500
O         31.61900        9.11000       63.56700
H         30.83500        8.67600       63.22800
H         31.90500        9.67400       62.84300
O         23.58000        2.58800       60.50800
H         22.89300        2.22300       61.06600
H         23.21700        3.42600       60.20200
N         26.66800        7.96100       60.06600
S         26.32300        8.67400       61.51600
O         26.87500        9.98400       61.53200
O         24.92900        8.57300       61.75300
C         27.18300        7.68800       62.77300
C         28.18900        8.29100       63.50100
C         28.88000        7.60400       64.51500
C         28.57100        6.30400       64.80200
C         27.54300        5.64000       64.09100
C         27.21100        4.28500       64.35800
O         27.93800        3.58600       65.26400
C         26.18400        3.65000       63.70800
C         25.46700        4.34100       62.72200
C         25.78500        5.63800       62.39500
C         26.82900        6.33200       63.07200
H         27.62600        7.98700       59.71400
H         26.18100        7.10200       59.81000
H         28.45400        9.29900       63.31400
H         29.63900        8.10000       65.05900
H         29.10400        5.79400       65.56400
H         27.59700        2.66900       65.34800
H         25.93600        2.64800       63.93900
H         24.67600        3.85200       62.22700
H         25.23500        6.11400       61.62800
