391
2vti_active_dlpno-mp2_tzvp_rijcosx_tpno.out	Energy:   -9334.1337682
N         26.09200       12.37100       68.07800
C         27.15500       12.19700       67.09300
C         26.97400       13.18300       65.93600
O         27.95800       13.77200       65.49100
C         27.19900       10.73200       66.60600
C         27.42800        9.73300       67.76400
C         28.28600       10.56100       65.53100
C         28.80200        9.85600       68.44100
H         25.23300       11.85900       67.93000
H         26.21000       12.97900       68.87600
H         28.10900       12.42900       67.56500
H         25.99500       13.35900       65.51600
H         26.23800       10.49300       66.14800
H         27.31800        8.71900       67.37800
H         26.65600        9.87500       68.52000
H         29.25100       10.90500       65.90400
H         28.03500       11.13300       64.63800
H         28.36300        9.51400       65.25500
H         29.59700        9.64000       67.72900
H         28.88200        9.13900       69.25000
H         28.93700       10.85600       68.85100
N         21.69400       10.85700       65.02900
C         22.34800        9.69600       65.61600
C         22.90300       10.11000       66.97800
O         23.59300       11.12200       67.09900
C         23.44100        9.13600       64.68400
C         24.14500        7.93300       65.33600
C         22.84200        8.68500       63.34100
H         22.29500       11.59700       64.68900
H         20.68800       10.92000       64.96500
H         21.60900        8.90900       65.76400
H         22.68800        9.50500       67.84700
H         24.18300        9.91300       64.49200
H         23.41800        7.15400       65.56800
H         24.64900        8.23800       66.25300
H         24.89800        7.53300       64.65900
H         22.10200        7.90300       63.50900
H         23.63300        8.29700       62.69800
H         22.37200        9.52800       62.83500
N         25.20000        8.35800       70.27500
C         25.77600        7.30600       71.09900
C         24.88600        7.17200       72.33100
O         24.53600        8.17300       72.95600
C         27.21600        7.65000       71.47600
C         27.94700        6.47500       72.14500
C         29.39100        6.87500       72.46600
C         30.20300        5.66900       72.94200
N         31.58000        6.07200       73.27100
H         25.51700        9.30400       70.43700
H         24.50900        8.15100       69.56800
H         25.77900        6.37200       70.53400
H         24.56100        6.19500       72.65500
H         27.21000        8.51200       72.14000
H         27.75000        7.90900       70.56800
H         27.94900        5.62200       71.46500
H         27.43900        6.18900       73.06600
H         29.39400        7.64000       73.24000
H         29.85800        7.29400       71.57500
H         30.22800        4.92100       72.14900
H         29.73200        5.23700       73.82500
H         31.55900        6.76600       74.00500
H         32.01100        6.49100       72.45700
N         24.63400        2.82500       68.64700
C         24.16100        4.00300       67.94100
C         22.62900        3.96300       67.90800
O         22.04500        2.95900       67.51600
C         24.77600        4.03500       66.54600
H         24.55100        1.93900       68.16700
H         25.02800        2.88700       69.57600
H         24.49300        4.90000       68.46200
H         22.06100        4.82300       68.23200
H         24.52300        3.12500       66.01500
H         25.85900        4.09900       66.62900
H         24.40200        4.89400       65.99000
N         19.35500        5.91300       66.45100
C         18.93000        6.78600       65.36700
C         17.42400        6.99800       65.47100
O         16.65800        6.07800       65.19400
C         19.33300        6.13700       64.03400
C         19.15200        7.08200       62.84200
C         19.68300        6.41700       61.56000
C         19.55900        7.30800       60.32000
N         20.07200        8.67200       60.55200
H         19.13300        4.93100       66.35800
H         19.84800        6.27000       67.25700
H         19.44000        7.74500       65.44900
H         17.03200        7.95300       65.78700
H         18.73000        5.24500       63.87100
H         20.38000        5.83600       64.08800
H         19.70900        7.99800       63.04200
H         18.09800        7.33000       62.72000
H         19.12300        5.49800       61.37500
H         20.73300        6.15400       61.69700
H         18.50900        7.36000       60.03100
H         20.12300        6.84500       59.50700
H         21.04300        8.62500       60.83100
H         19.54000        9.11300       61.29100
N         27.20300       -2.38700       59.13800
C         26.93500       -2.03700       60.52500
C         25.62300       -2.70100       60.94600
O         24.60000       -2.51300       60.28900
C         26.89400       -0.51000       60.68000
C         26.69300       -0.12500       62.14500
C         28.21900        0.10600       60.21800
H         27.28700       -1.63600       58.46600
H         27.30300       -3.35200       58.85400
H         27.74800       -2.42500       61.14000
H         25.59400       -3.33400       61.82000
H         26.07700       -0.09600       60.08800
H         27.51000       -0.52500       62.73800
H         25.74100       -0.50600       62.51400
H         26.71500        0.95500       62.24100
H         29.03800       -0.30400       60.80600
H         28.18000        1.17600       60.34900
H         28.39600       -0.08700       59.16400
N         21.67100        0.37500       66.37300
C         22.74600       -0.22800       65.60300
C         23.92800       -0.53900       66.50800
O         24.09000        0.09000       67.55400
C         23.21000        0.73100       64.51200
C         22.22500        1.01300       63.40600
C         22.20200        0.18100       62.27500
C         21.40000        2.15200       63.46300
C         21.34000        0.47500       61.21000
C         20.54800        2.45100       62.38700
C         20.51500        1.61000       61.26100
H         21.88400        1.23400       66.85900
H         20.75400       -0.04600       66.42000
H         22.39900       -1.14700       65.13900
H         24.11200        0.31700       64.06300
H         23.47900        1.67400       64.97100
H         22.85500       -0.67700       62.21600
H         21.43600        2.81000       64.31900
H         21.32300       -0.17100       60.35000
H         19.92800        3.33200       62.42000
H         19.86200        1.83800       60.43200
N         24.82100       -1.42900       66.05400
C         26.14100       -1.52800       66.65100
C         26.83300       -0.17100       66.49600
O         26.63400        0.53100       65.50200
C         26.97600       -2.68300       66.06800
C         27.59700       -2.34600       64.70900
C         28.57700       -3.39800       64.20400
O         29.69600       -3.48100       64.75300
O         28.22800       -4.07400       63.21900
H         24.64300       -1.92600       65.19300
H         25.99600       -1.73300       67.71100
H         26.35100       -3.57100       65.97000
H         27.78300       -2.90400       66.76600
H         28.15800       -1.41900       64.77900
H         26.78700       -2.21200       63.99600
H         28.89200       -4.68600       62.89100
N         27.66100        0.17800       67.47300
C         28.37500        1.43700       67.50500
C         29.79400        1.22900       66.98300
O         30.50100        0.33000       67.44200
C         28.35400        1.96800       68.93800
C         29.09200        3.27400       69.11300
C         28.50800        4.48300       68.69000
C         30.37900        3.27300       69.67900
C         29.21900        5.68800       68.81700
C         31.08500        4.47900       69.80400
C         30.51200        5.68300       69.36500
H         27.81500       -0.46600       68.23600
H         27.86300        2.16400       66.87300
H         28.78300        1.21600       69.60200
H         27.32200        2.11800       69.23500
H         27.51700        4.48800       68.26300
H         30.82800        2.34700       70.00800
H         28.77500        6.61700       68.49200
H         32.06800        4.48200       70.24000
H         31.06300        6.60600       69.45600
N         30.22300        2.11000       66.07200
C         31.62300        2.26500       65.69700
C         32.09200        3.65900       66.09800
O         31.30000        4.59700       66.17800
C         31.86100        1.97200       64.20800
C         31.79000        0.46900       63.86100
C         30.35400        0.03700       63.53500
C         32.68200        0.11500       62.66300
H         29.57100        2.79300       65.70800
H         32.22000        1.55900       66.26900
H         32.85600        2.34000       63.95400
H         31.13100        2.52800       63.62500
H         32.14900       -0.10700       64.71300
H         29.98100        0.60400       62.68400
H         29.70300        0.21700       64.38600
H         30.32900       -1.02800       63.30600
H         32.33100        0.61900       61.76500
H         32.66600       -0.96100       62.49800
H         33.70800        0.41400       62.86500
N         33.38500        3.76900       66.40900
C         33.93500        4.91700       67.11900
C         34.36200        6.06100       66.19500
O         34.56100        7.16900       66.69000
C         35.09600        4.44600       68.00300
C         34.67500        3.66600       69.22500
C         34.24600        2.37400       69.23200
N         34.65900        4.14700       70.53700
N         33.96900        2.04400       70.53100
C         34.21700        3.12500       71.28800
H         33.99000        2.97100       66.26900
H         33.16300        5.32200       67.77600
H         35.62400        5.32000       68.36000
H         35.79400        3.85300       67.41000
H         34.12800        1.73800       68.38300
H         33.63500        1.14700       70.85400
H         34.06200        3.16700       72.35500
N         34.50200        5.82800       64.88300
C         34.97500        6.83800       63.94100
C         34.38200        6.60200       62.54900
O         34.11500        5.45800       62.18600
C         36.51600        6.81600       63.94300
C         37.12800        8.02800       63.23000
C         38.59200        8.26400       63.58900
O         39.45900        8.24100       62.72300
N         38.88400        8.52900       64.86000
H         34.30400        4.90600       64.51700
H         34.64200        7.81300       64.29100
H         36.87600        5.90400       63.47700
H         36.85600        6.81400       64.97800
H         36.56600        8.91100       63.50500
H         37.04700        7.88800       62.15500
H         39.84100        8.69000       65.14000
H         38.14500        8.54900       65.54900
N         34.21200        7.67600       61.76300
C         33.86900        7.59600       60.34400
C         35.07800        7.89400       59.44900
O         36.10000        8.41600       59.90200
C         32.62100        8.43800       60.00800
C         32.79100        9.96000       60.02900
O         33.91000       10.46300       59.81400
O         31.76300       10.63700       60.22700
H         34.43300        8.59200       62.13000
H         33.58700        6.56800       60.13300
H         35.03500        7.64200       58.40000
H         31.82900        8.16900       60.70800
H         32.27700        8.15600       59.01300
H         31.89300       11.58800       60.20300
N         36.40100       11.76600       59.25800
C         37.29900       12.15200       60.34200
C         38.65700       11.48100       60.17400
O         39.67500       12.12300       60.42200
C         36.68300       11.78100       61.69700
C         37.61000       12.16200       62.86800
C         36.91600       11.92800       64.20800
C         37.80400       12.23600       65.41000
N         37.04200       12.03300       66.65600
H         35.57300       11.23300       59.48900
H         36.60100       12.02600       58.30300
H         37.43900       13.23200       60.30200
H         38.72400       10.45600       59.84200
H         36.49300       10.70700       61.72100
H         35.73200       12.30200       61.80300
H         37.87600       13.21500       62.78800
H         38.51900       11.55800       62.83400
H         36.63100       10.88500       64.27800
H         36.02100       12.54900       64.25200
H         38.14700       13.26900       65.35100
H         38.66700       11.56800       65.39700
H         36.71100       11.07800       66.69800
H         36.23600       12.64500       66.66000
N         30.86200        9.83600       55.52500
C         30.23200        9.97100       56.83300
C         29.45700        8.71200       57.24500
O         29.29700        8.49000       58.43900
C         29.29600       11.19200       56.85400
C         29.97100       12.56100       56.63600
C         30.58300       12.77000       55.24600
N         29.91400       12.38700       54.17200
O         31.68500       13.26300       55.10700
H         30.48500       10.39100       54.77100
H         31.64300        9.21200       55.37900
H         31.01600       10.13100       57.57300
H         29.06300        8.03700       56.49900
H         28.80800       11.22300       57.82900
H         28.51200       11.05400       56.11200
H         30.75100       12.68400       57.39000
H         29.22300       13.33800       56.79800
H         30.34500       12.51800       53.26800
H         29.02000       11.93600       54.26900
N         32.10700        3.54600       58.42300
C         32.53700        3.53600       59.81100
C         33.66400        2.54000       60.00800
O         33.59900        1.42500       59.50500
C         31.35900        3.23000       60.74000
C         30.14500        4.16100       60.57800
C         29.07600        3.79100       61.60400
C         30.51700        5.63100       60.79000
H         31.56000        2.76000       58.10400
H         32.34500        4.30800       57.80400
H         32.92200        4.51800       60.07600
H         34.52800        2.81500       60.59500
H         31.73400        3.32500       61.75400
H         31.03500        2.20100       60.57700
H         29.72200        4.03500       59.58100
H         29.44800        3.98700       62.60600
H         28.82500        2.73900       61.53900
H         28.17800        4.37800       61.41500
H         30.97700        5.76200       61.77000
H         29.62600        6.25500       60.72000
H         31.21500        5.94800       60.01900
N         27.15900        1.92300       56.92000
C         26.07700        2.32800       57.80900
C         24.93100        2.90100       56.97900
O         25.19000        3.46700       55.92400
C         26.60300        3.36600       58.79900
H         27.68100        2.67100       56.48500
H         27.37300        0.95100       56.74800
H         25.72100        1.47000       58.37400
H         26.92900        4.25800       58.26800
H         27.44900        2.95800       59.34400
H         25.81500        3.63500       59.50000
N         23.69000        2.82500       57.47700
C         22.48300        3.30500       56.79500
C         22.17000        2.57800       55.47200
O         21.46700        3.12800       54.62800
C         22.48200        4.84900       56.66800
C         22.36500        5.60600       57.99800
O         21.96600        4.99200       59.01300
O         22.63300        6.82800       57.97400
H         23.55100        2.33100       58.34700
H         21.65500        3.04500       57.45200
H         22.56600        1.59100       55.28800
H         21.63900        5.15700       56.04900
H         23.38500        5.17500       56.15100
H         22.93500        7.23800       57.16000
O         32.49900       11.23100       69.19900
H         31.75200       11.78500       68.97200
H         32.43200       11.13000       70.15000
O         32.62200        7.79600       71.22100
H         33.41400        7.57300       70.72000
H         32.75100        8.71600       71.46200
O         34.55200       14.75400       62.24200
H         33.96600       14.13700       61.80000
H         35.22800       14.95100       61.58600
O         34.88600        7.43800       69.60300
H         35.72900        7.86600       69.76300
H         34.73800        7.55100       68.66200
O         32.50400       13.24100       60.86500
H         33.32400       13.08200       60.39800
H         32.03200       14.01100       60.54100
O         36.61700        9.09700       66.67900
H         35.77600        8.63400       66.64200
H         36.88400        9.02300       67.59900
O         34.91500       14.13900       66.55300
H         34.05600       13.76300       66.75100
H         34.72700       15.04000       66.29000
O         29.20100        9.90100       60.73700
H         29.09000        9.28500       60.00700
H         30.09500       10.23600       60.61400
O         36.59600        9.75100       69.47500
H         35.81100        9.95900       69.98200
H         37.24500        9.50400       70.14700
O         26.78800        9.54500       62.16700
H         27.54200        9.76200       61.60900
H         27.12900        8.87300       62.76200
N         29.34100        6.42200       64.93300
C         28.10200        6.41100       64.31900
C         27.43600        5.13900       64.14900
C         25.50700        5.71700       62.48200
C         24.46600        5.13300       61.77800
C         24.21300        3.74700       61.88100
C         25.00900        2.95400       62.68400
C         26.31200        4.91600       63.31900
O         27.63200        7.47700       63.93200
N         27.83700        4.01300       64.70700
N         26.99800        3.06400       64.23400
C         30.43800        8.15000       63.61000
C         31.39100        9.15200       63.51400
C         32.19900        9.47600       64.60400
C         32.02000        8.79500       65.81200
C         31.07300        7.78400       65.92100
S         33.50600       10.68100       64.39400
O         34.38800       10.15800       63.41200
O         34.05900       10.97400       65.67500
N         32.78500       12.03000       63.78600
C         30.28200        7.46600       64.81800
C         26.05000        3.57100       63.38800
H         29.62500        5.56700       65.43900
H         25.69800        6.75400       62.38600
H         23.85200        5.72300       61.14800
H         23.41300        3.31700       61.33400
H         24.84000        1.91600       62.75700
H         27.07900        2.06600       64.50000
H         29.84700        7.90400       62.76700
H         31.51600        9.66900       62.60000
H         32.62600        9.03500       66.64800
H         30.95700        7.25500       66.83200
H         32.38100       11.98900       62.84700
H         32.24300       12.63700       64.39300
