326
2vtj_active_dlpno-mp2_tzvp_rijcosx_tpno.out	Energy:   -8475.0149815
N         26.26500       12.20400       68.28800
C         27.43700       11.90400       67.46400
C         27.18500       12.19300       65.98000
O         28.12200       12.13100       65.18700
C         27.92800       10.46000       67.71300
C         26.84400        9.42100       67.35000
C         28.39400       10.31400       69.17300
C         27.32000        7.97500       67.48800
H         25.39200       11.76600       68.02800
H         26.32700       12.82200       69.08400
H         28.24500       12.57400       67.75800
H         28.79700       10.28800       67.07600
H         26.53300        9.57600       66.31600
H         25.97600        9.55700       67.99400
H         27.53600       10.36700       69.84100
H         29.09400       11.11200       69.42300
H         28.90200        9.36200       69.31900
H         28.23600        7.82900       66.91900
H         26.55000        7.29600       67.12400
H         27.50400        7.75000       68.53300
N         25.95800       12.56900       65.60500
C         25.64100       12.97700       64.24900
C         24.21400       13.49100       64.11500
O         23.34300       13.18700       64.92900
H         25.21800       12.61700       66.29100
H         25.76800       12.12500       63.58000
H         26.33100       13.76300       63.94300
H         23.96200       14.13700       63.28700
N         21.52200       11.06700       65.68100
C         22.26100        9.85800       65.99800
C         22.91700       10.08900       67.35400
O         23.56700       11.11400       67.56500
C         23.33000        9.55300       64.92500
C         23.94700        8.16700       65.17600
C         22.76800        9.60500       63.49700
H         22.06000       11.92400       65.69500
H         20.53700       11.05400       65.46100
H         21.56900        9.01800       66.05100
H         22.81200        9.35000       68.13500
H         24.12200       10.29900       64.99500
H         23.17900        7.39600       65.11500
H         24.40700        8.13200       66.16200
H         24.71900        7.96600       64.43100
H         21.95600        8.89400       63.40200
H         23.55000        9.35600       62.78000
H         22.39600       10.60300       63.26800
N         24.90500        2.70500       68.77500
C         24.40600        3.88500       68.09400
C         22.87900        3.81600       68.07100
O         22.30400        2.74700       67.88700
C         25.01300        3.96500       66.70000
H         24.88700        1.83700       68.25800
H         25.25500        2.75000       69.72200
H         24.72100        4.77400       68.63600
H         22.30000        4.71600       68.21700
H         24.77600        3.06300       66.14800
H         26.09300        4.04600       66.79300
H         24.62500        4.83400       66.17000
N         27.49500       -2.45700       59.08700
C         27.18200       -2.12800       60.47900
C         25.91300       -2.88300       60.85600
O         24.90600       -2.77600       60.15500
C         26.97200       -0.61800       60.67600
C         26.59700       -0.28400       62.13000
C         28.24000        0.15600       60.31800
H         27.47100       -1.71000       58.40600
H         27.72800       -3.40100       58.81600
H         28.00800       -2.45200       61.11500
H         25.89700       -3.51000       61.73500
H         26.16200       -0.28100       60.02800
H         27.39600       -0.59100       62.80500
H         25.67900       -0.79800       62.41200
H         26.42800        0.78800       62.23600
H         29.07300       -0.16200       60.94300
H         28.04500        1.20200       60.50000
H         28.49300        0.02900       59.26800
N         22.03500        0.37700       66.30400
C         23.13600       -0.19300       65.54600
C         24.29100       -0.55000       66.47200
O         24.49600        0.07200       67.51200
C         23.59900        0.77800       64.45300
C         22.63000        0.96600       63.30900
C         22.60000        0.03800       62.25300
C         21.77900        2.08700       63.28200
C         21.70400        0.21500       61.18700
C         20.88900        2.26600       62.21000
C         20.84300        1.32500       61.16800
H         22.20700        1.25000       66.78100
H         21.13500       -0.08000       66.35200
H         22.80400       -1.10700       65.06000
H         24.54400        0.42300       64.04400
H         23.78800        1.74600       64.89900
H         23.26400       -0.81300       62.25700
H         21.81100        2.81300       64.08100
H         21.67200       -0.50600       60.38600
H         20.23900        3.12700       62.19000
H         20.14200        1.44900       60.35600
N         25.09800       -1.51100       66.01800
C         26.44300       -1.75600       66.50800
C         27.20800       -0.43400       66.44200
O         27.16400        0.25100       65.42100
C         27.07200       -2.80800       65.58900
C         28.56600       -3.05900       65.84300
C         29.31700       -3.58900       64.62300
O         30.55500       -3.67400       64.75800
O         28.69400       -3.88500       63.57600
H         24.81700       -2.02300       65.19500
H         26.41200       -2.12700       67.53400
H         26.93200       -2.46600       64.56300
H         26.54000       -3.75100       65.71600
H         28.67100       -3.76700       66.66500
H         29.06300       -2.13600       66.13600
H         29.24300       -4.19500       62.85200
N         27.90300       -0.08200       67.52400
C         28.62400        1.17300       67.62300
C         30.07200        1.00000       67.15600
O         30.76400        0.08200       67.59700
C         28.52800        1.69900       69.05600
C         29.31800        2.96500       69.28000
C         28.76300        4.21700       68.95400
C         30.63900        2.88100       69.75400
C         29.54200        5.37900       69.08300
C         31.40600        4.04700       69.88800
C         30.86400        5.29400       69.54300
H         27.94500       -0.71300       68.31300
H         28.13700        1.90500       66.98000
H         28.87200        0.93100       69.75000
H         27.48700        1.90400       69.27600
H         27.74900        4.28700       68.59000
H         31.07100        1.92000       69.99000
H         29.13300        6.33900       68.82500
H         32.41600        3.98200       70.24500
H         31.46100        6.18700       69.62500
N         30.54200        1.94300       66.32900
C         31.94900        2.11800       65.99100
C         32.36500        3.55600       66.29900
O         31.59000        4.49500       66.12900
C         32.24900        1.77200       64.52400
C         32.18000        0.27000       64.17200
C         30.75600       -0.19600       63.83200
C         33.07700       -0.04000       62.96400
H         29.90300        2.64900       65.98900
H         32.54600        1.46200       66.62300
H         33.26200        2.12300       64.31800
H         31.57000        2.33400       63.89000
H         32.55300       -0.30800       65.01800
H         30.37000        0.36500       62.98200
H         30.09100       -0.05900       64.68000
H         30.76800       -1.25600       63.58600
H         32.71700        0.48100       62.08000
H         33.08200       -1.11200       62.77000
H         34.09700        0.28000       63.16900
N         33.60800        3.72100       66.75300
C         34.08400        4.96900       67.33600
C         34.46700        6.03400       66.30800
O         34.42300        7.21600       66.65400
C         35.29800        4.67900       68.21200
C         35.02500        3.93000       69.48600
C         34.79500        2.58900       69.58500
N         35.00400        4.49200       70.76500
N         34.61700        2.31700       70.91600
C         34.75400        3.46900       71.59600
H         34.21400        2.91400       66.80800
H         33.29700        5.38800       67.96300
H         35.72900        5.64100       68.49200
H         36.02200        4.11300       67.62300
H         34.75400        1.88200       68.77700
H         34.41100        1.41100       71.31100
H         34.66100        3.56000       72.66700
N         34.87200        5.64900       65.08900
C         35.37700        6.59300       64.09800
C         34.78100        6.33200       62.71700
O         34.60200        5.17900       62.33700
C         36.91200        6.57200       64.11000
C         37.51800        7.77300       63.36700
C         38.92900        8.10600       63.84500
O         39.85700        8.18300       63.04900
N         39.09900        8.34700       65.14400
H         34.89400        4.66500       64.85400
H         35.07200        7.58800       64.40000
H         37.28200        5.64900       63.67200
H         37.23200        6.59600       65.15100
H         36.89100        8.64900       63.52500
H         37.54500        7.55400       62.30000
H         40.01800        8.56500       65.50100
H         38.31500        8.25900       65.77600
N         34.51500        7.40600       61.96200
C         34.18200        7.34700       60.54200
C         35.38600        7.72200       59.66300
O         36.37100        8.29000       60.13800
C         32.91800        8.17000       60.24100
C         33.10300        9.67900       60.38100
O         33.97000       10.22600       59.67200
O         32.34000       10.28700       61.15900
H         34.62000        8.32500       62.37100
H         33.93300        6.31700       60.30700
H         35.36900        7.48200       58.61000
H         32.11900        7.84800       60.91000
H         32.60000        7.95600       59.22000
H         32.46100       11.23900       61.18400
N         36.60900       11.47600       59.28800
C         37.33900       11.90500       60.47000
C         38.76700       11.35900       60.45900
O         39.70500       12.10200       60.73700
C         36.55300       11.40200       61.68900
C         36.61800       12.32200       62.91200
C         37.63600       11.87000       63.96400
C         37.14200       12.31200       65.34300
N         37.96600       11.73800       66.42200
H         35.81600       10.86500       59.43600
H         36.88200       11.77300       58.36300
H         37.37100       12.99600       60.47100
H         38.95000       10.32500       60.20700
H         36.88200       10.39600       61.94500
H         35.50000       11.32600       61.42300
H         35.62700       12.31500       63.36200
H         36.82800       13.34900       62.61000
H         38.61100       12.30700       63.74800
H         37.71900       10.78500       63.96200
H         36.11300       11.96900       65.46800
H         37.15700       13.40100       65.39800
H         38.92400       12.04200       66.32700
H         37.92700       10.72800       66.37400
N         32.45700        3.37700       58.55400
C         32.85100        3.30000       59.95000
C         34.02100        2.34900       60.12000
O         33.95800        1.21600       59.66200
C         31.66600        2.84700       60.80400
C         30.44300        3.77900       60.78200
C         29.48000        3.32400       61.88000
C         30.78600        5.25500       61.02100
H         31.91600        2.60800       58.18400
H         32.71300        4.16500       57.97800
H         33.16600        4.28100       60.29700
H         34.90700        2.67200       60.64500
H         32.02800        2.76800       61.82400
H         31.35100        1.85400       60.47400
H         29.94800        3.68700       59.81500
H         29.90600        3.52800       62.86000
H         29.30300        2.25600       61.81000
H         28.53700        3.85500       61.77100
H         31.32600        5.36900       61.96200
H         29.87000        5.84600       61.05500
H         31.39700        5.63200       60.20400
N         27.45700        1.77500       57.00600
C         26.31100        2.15000       57.83700
C         25.19900        2.73000       56.96100
O         25.51000        3.21000       55.88000
C         26.75200        3.19400       58.86800
H         28.03000        2.53700       56.67100
H         27.66300        0.81200       56.78200
H         25.93700        1.27400       58.36200
H         26.99700        4.13100       58.37200
H         27.64000        2.86100       59.39100
H         25.94900        3.36200       59.58700
N         23.95400        2.79300       57.46800
C         22.76200        3.39000       56.82700
C         22.20200        2.60400       55.63600
O         21.42800        3.13700       54.83700
C         22.97700        4.88000       56.46300
C         22.95700        5.84600       57.64400
O         23.05400        7.06000       57.36800
O         22.77200        5.38900       58.79400
H         23.79200        2.30800       58.33900
H         21.97500        3.35000       57.58000
H         22.48800        1.57200       55.49500
H         22.18300        5.20600       55.79300
H         23.90600        5.00600       55.91000
H         22.97600        7.65400       58.11900
O         30.62900       12.97600       66.45400
H         30.75100       13.91700       66.32600
H         29.83300       12.77000       65.95800
O         33.05300        7.39100       71.29400
H         33.69000        6.91400       70.76000
H         33.25400        8.31500       71.13900
O         28.68200       12.42700       61.19900
H         29.52000       12.87200       61.32400
H         28.91600       11.49700       61.14000
O         36.63700        9.04100       66.98600
H         35.89800        8.47300       66.75000
H         36.67700        8.98500       67.94300
O         29.62800        9.65100       60.82400
H         29.62000        9.02300       60.09600
H         30.55500        9.90200       60.90400
O         32.53000       13.04800       60.28600
H         33.47400       13.06300       60.13400
H         32.04800       13.13300       59.46000
O         26.39800        7.23800       60.05700
H         25.51000        6.95200       59.84000
H         26.29900        7.72100       60.88100
O         23.12400        6.16200       61.56100
H         23.92700        5.77600       61.91200
H         23.07900        5.83200       60.65900
O         31.98100       10.30100       68.56000
H         31.03500       10.16300       68.60900
H         32.17000       10.89600       69.28700
O         26.67300        9.24800       62.21200
H         26.70000       10.11800       61.81000
H         27.53000        8.86900       62.00200
N         33.67200       10.69400       66.01600
S         33.37000       10.52400       64.40600
O         33.10400       11.80300       63.84000
O         34.41800        9.76800       63.81100
C         31.86100        9.55600       64.35900
C         30.62800       10.19500       64.22900
C         29.45100        9.46200       64.18500
C         29.49000        8.07100       64.26700
N         28.24200        7.40800       64.20700
C         27.96400        6.04600       64.34300
C         28.66300        5.21500       65.22900
N         28.40000        3.91800       65.30100
C         27.42900        3.45500       64.52000
C         26.69400        4.30100       63.68400
Cl        25.39900        3.66000       62.73200
N         26.95900        5.60400       63.58700
C         30.72100        7.41400       64.37100
C         31.89200        8.16000       64.42800
H         33.90900        9.85300       66.54600
H         33.01200       11.25900       66.55900
H         30.59100       11.25200       64.16000
H         28.52300        9.95700       64.07900
H         27.44200        7.98700       63.90700
H         29.41100        5.61100       65.86400
H         27.20600        2.42500       64.54800
H         30.78100        6.36000       64.39400
H         32.81900        7.66300       64.52100
