355
2vtl_active_dlpno-mp2_tzvp_rijcosx_tpno.out	Energy:   -7837.1156733
N         26.58100       12.43200       69.09600
C         27.72800       12.19200       68.21500
C         27.54000       12.85400       66.85200
O         28.53000       13.11900       66.17200
C         28.06100       10.68800       68.05100
C         26.80700        9.78900       67.98700
C         29.05400       10.26200       69.14100
C         27.11700        8.29200       67.96500
H         25.75300       11.87100       68.94200
H         26.61600       13.12900       69.82600
H         28.59700       12.67000       68.66300
H         26.55000       13.08700       66.49000
H         28.58500       10.56700       67.10100
H         26.25300       10.05300       67.08900
H         26.17400        9.97000       68.85100
H         28.57000       10.28300       70.11500
H         29.91200       10.93500       69.14200
H         29.43000        9.26000       68.93600
H         27.80800        8.06300       67.15600
H         26.20600        7.71000       67.85000
H         27.54700        8.01700       68.92100
N         21.80800       11.61600       66.13800
C         22.51700       10.39600       66.47900
C         23.14400       10.60800       67.85300
O         23.88800       11.56700       68.06600
C         23.55700       10.04700       65.39800
C         24.18100        8.67500       65.69000
C         22.91900       10.01500       64.00100
H         22.37200       12.44200       65.98500
H         20.80100       11.63900       66.05800
H         21.80600        9.57200       66.53600
H         22.93400        9.90900       68.64900
H         24.34700       10.79900       65.40200
H         23.42800        7.89500       65.64900
H         24.59900        8.66400       66.68900
H         24.97200        8.46000       64.97000
H         22.07500        9.32700       64.00100
H         23.65500        9.70100       63.26200
H         22.56300       11.00800       63.72800
N         25.36900        8.62200       71.02300
C         25.96900        7.53400       71.77700
C         25.07100        7.32400       72.99200
O         24.68900        8.29800       73.63800
C         27.40700        7.89200       72.17400
C         28.13900        6.71300       72.83200
C         29.62100        7.04800       73.04600
C         30.40600        5.79100       73.43100
N         31.82600        6.10600       73.65900
H         25.64900        9.56000       71.27200
H         24.70400        8.44900       70.28300
H         25.98400        6.63300       71.16100
H         24.77300        6.32800       73.28200
H         27.39000        8.73800       72.86100
H         27.95100        8.18500       71.27600
H         28.05700        5.83800       72.18700
H         27.68300        6.48400       73.79700
H         29.71500        7.79900       73.83200
H         30.03900        7.45400       72.12400
H         30.32800        5.06300       72.62200
H         29.98100        5.36300       74.34000
H         31.90800        6.78300       74.40500
H         32.21900        6.51500       72.82100
N         24.95600        3.07000       69.15900
C         24.48900        4.28300       68.50600
C         22.96000        4.23400       68.41900
O         22.39200        3.22300       68.02100
C         25.14600        4.42100       67.13700
H         24.84700        2.20400       68.64800
H         25.37000        3.09300       70.08000
H         24.78400        5.15000       69.09500
H         22.37900        5.09700       68.71000
H         24.89200        3.56300       66.52300
H         26.22800        4.46500       67.25600
H         24.79800        5.33300       66.65100
N         19.68500        6.23400       66.84200
C         19.26000        7.19200       65.82600
C         17.76900        7.42500       65.96200
O         16.98000        6.51700       65.71200
C         19.62500        6.73500       64.40500
C         21.08400        6.28100       64.30400
C         21.66600        6.50900       62.90700
C         23.15500        6.15900       62.90700
N         23.78400        6.53300       61.62900
H         19.41900        5.26600       66.71900
H         20.22800        6.52800       67.64200
H         19.77200        8.14100       65.99100
H         17.39900        8.38900       66.27900
H         19.45500        7.58100       63.73700
H         18.97700        5.91600       64.09200
H         21.13700        5.22500       64.55700
H         21.67800        6.83300       65.02600
H         21.54800        7.55900       62.63700
H         21.14000        5.89300       62.17800
H         23.27100        5.08700       63.07300
H         23.64900        6.69700       63.71800
H         23.69300        7.52600       61.47200
H         23.33000        6.04400       60.86700
N         27.33200       -2.02200       59.45700
C         27.08100       -1.66100       60.85300
C         25.80300       -2.37200       61.29900
O         24.75900       -2.19700       60.67500
C         26.95400       -0.13300       61.00800
C         26.67900        0.26700       62.46500
C         28.23800        0.57000       60.55100
H         27.32200       -1.28300       58.76800
H         27.51000       -2.98000       59.19100
H         27.92000       -2.00300       61.46100
H         25.81800       -3.02600       62.15900
H         26.12300        0.21900       60.39700
H         27.52900        0.00200       63.09200
H         25.78500       -0.23100       62.83700
H         26.52200        1.34200       62.52500
H         29.08700        0.23700       61.14700
H         28.11300        1.63900       60.67100
H         28.44000        0.37200       59.50200
N         22.04300        0.71500       66.71600
C         23.15600        0.16800       65.95400
C         24.30900       -0.20200       66.88300
O         24.47500        0.41300       67.93600
C         23.61500        1.19000       64.90700
C         22.67500        1.35100       63.73500
C         22.67700        0.40100       62.70000
C         21.80500        2.45300       63.67000
C         21.80000        0.54800       61.61600
C         20.94900        2.61400       62.56700
C         20.94100        1.65600       61.54000
H         22.21000        1.58400       67.20100
H         21.14800        0.24900       66.75800
H         22.82800       -0.72800       65.43500
H         24.58900        0.89200       64.52100
H         23.74000        2.15600       65.38800
H         23.34700       -0.44400       62.73600
H         21.79900        3.17500       64.47000
H         21.78500       -0.19200       60.83800
H         20.29300        3.46800       62.50800
H         20.27700        1.76900       60.69600
N         25.17700       -1.11900       66.43200
C         26.49600       -1.29300       67.03000
C         27.23900        0.03900       66.93200
O         27.12800        0.71800       65.91700
C         27.28800       -2.44300       66.37300
C         27.95800       -2.06600       65.04200
C         28.87800       -3.14600       64.48100
O         29.98400       -3.33100       65.03300
O         28.50600       -3.73600       63.44800
H         24.97600       -1.61400       65.57400
H         26.35100       -1.53800       68.08100
H         26.62200       -3.28900       66.20900
H         28.06800       -2.75000       67.06800
H         28.58000       -1.18900       65.18700
H         27.18100       -1.82400       64.32100
H         29.13900       -4.36100       63.08800
N         28.00400        0.39900       67.95900
C         28.75000        1.64200       68.01000
C         30.14400        1.44600       67.40400
O         30.86400        0.52900       67.80000
C         28.82200        2.10100       69.46700
C         29.55600        3.40800       69.64300
C         30.91400        3.40500       70.00800
C         28.89700        4.62600       69.39800
C         31.60400        4.61900       70.13600
C         29.60200        5.83400       69.52100
C         30.95500        5.83300       69.88400
H         28.07800       -0.22300       68.75100
H         28.21500        2.40800       67.44600
H         29.31600        1.32900       70.05800
H         27.81100        2.21700       69.85500
H         31.43200        2.47100       70.17400
H         27.85800        4.63600       69.10400
H         32.63600        4.62500       70.41700
H         29.11600        6.76900       69.33000
H         31.49500        6.76500       69.96100
N         30.55100        2.36100       66.51400
C         31.93800        2.51800       66.07400
C         32.41300        3.92600       66.43800
O         31.60900        4.85100       66.50800
C         32.11600        2.21200       64.57400
C         32.09900        0.70100       64.25100
C         30.67000        0.21300       63.99500
C         32.96400        0.35500       63.02900
H         29.89500        3.07000       66.21200
H         32.56400        1.82300       66.63000
H         33.08000        2.61800       64.26600
H         31.34000        2.72600       64.00600
H         32.51200        0.15400       65.09900
H         30.24500        0.72500       63.13200
H         30.04800        0.41800       64.86100
H         30.67100       -0.86100       63.82100
H         32.56000        0.81800       62.13000
H         32.99100       -0.72600       62.89400
H         33.98400        0.70300       63.18600
N         33.71100        4.07400       66.72800
C         34.24300        5.26700       67.39000
C         34.61900        6.40900       66.43100
O         34.83000        7.52600       66.90100
C         35.44600        4.88700       68.26700
C         35.12000        4.13000       69.53300
C         34.81700        2.80400       69.60300
N         35.12700        4.65100       70.83200
N         34.62700        2.49500       70.92300
C         34.81500        3.61900       71.63500
H         34.33200        3.28800       66.60400
H         33.46700        5.66200       68.04800
H         35.94000        5.80500       68.56700
H         36.15600        4.30800       67.67400
H         34.74500        2.12800       68.78300
H         34.40000        1.58100       71.29000
H         34.71500        3.68100       72.70700
N         34.72000        6.17000       65.11700
C         35.02400        7.22600       64.15000
C         34.39000        6.92400       62.79100
O         34.16300        5.76300       62.46000
C         36.55200        7.38700       64.02500
C         36.94800        8.77100       63.48500
C         38.44600        8.93100       63.23600
N         38.87500       10.15300       62.94100
O         39.22100        7.98300       63.29100
H         34.56800        5.23600       64.76300
H         34.60100        8.16100       64.51800
H         36.93800        6.60800       63.36900
H         37.01600        7.26900       65.00600
H         36.61800        9.53500       64.18900
H         36.44400        8.96000       62.54600
H         39.85400       10.29500       62.74700
H         38.22400       10.92100       62.90000
N         34.18700        7.97200       61.98300
C         33.86900        7.87100       60.56200
C         35.09000        8.18500       59.67600
O         36.09900        8.72000       60.13800
C         32.62200        8.71200       60.23700
C         32.82900       10.21600       60.36900
O         33.76800       10.73200       59.73500
O         32.03600       10.85700       61.09100
H         34.39200        8.89500       62.33300
H         33.60000        6.84000       60.35600
H         35.06100        7.93000       58.62700
H         31.81900        8.42000       60.91300
H         32.30100        8.49000       59.21900
H         33.85100       11.68400       59.83500
N         36.26200       12.14400       59.20400
C         37.15300       12.64700       60.24900
C         38.54600       12.03000       60.14200
O         39.52600       12.70100       60.45000
C         36.61200       12.34500       61.65100
C         35.21800       12.90500       61.93200
C         35.03600       13.23600       63.42400
C         33.60400       13.05800       63.94600
N         32.56900       13.31600       62.92800
H         35.46400       11.58800       59.48200
H         36.43900       12.34600       58.23000
H         37.24100       13.72900       60.13400
H         38.66700       11.01300       59.79900
H         37.31700       12.76400       62.37000
H         36.57400       11.26500       61.79600
H         34.49700       12.14900       61.63700
H         35.04700       13.80900       61.34600
H         35.35100       14.26900       63.58300
H         35.68200       12.59500       64.02600
H         33.45700       13.73100       64.79200
H         33.49200       12.03200       64.29700
H         32.68000       12.65700       62.16500
H         32.66300       14.25200       62.56100
N         30.98600       10.08400       55.69200
C         30.37700       10.25700       57.01300
C         29.59800        9.01700       57.48800
O         29.41300        8.86700       58.69500
C         29.44600       11.48500       57.05600
C         30.05600       12.80400       56.55200
C         29.77900       13.05700       55.06800
O         30.43200       12.49600       54.19500
N         28.78400       13.88600       54.76100
H         30.60300       10.62100       54.92600
H         31.76100        9.45200       55.55200
H         31.18500       10.42800       57.72400
H         29.22300        8.29600       56.77800
H         29.16600       11.63400       58.10100
H         28.52900       11.27500       56.50200
H         31.12900       12.81500       56.73600
H         29.61600       13.62100       57.12600
H         28.60100       14.09100       53.79000
H         28.27600       14.36200       55.49100
N         32.28900        3.82100       58.69800
C         32.74600        3.85300       60.08500
C         33.89000        2.87500       60.30400
O         33.83700        1.74600       59.82500
C         31.59800        3.56500       61.06200
C         30.34300        4.44200       60.89500
C         29.32500        4.07800       61.97600
C         30.63700        5.94000       61.01000
H         31.81200        2.98600       58.38800
H         32.44300        4.60100       58.07500
H         33.12600        4.84400       60.30700
H         34.75200        3.17400       60.88300
H         31.98900        3.70700       62.06900
H         31.30300        2.52000       60.95400
H         29.89900        4.24400       59.91900
H         29.72400        4.33800       62.95400
H         29.12400        3.01100       61.96300
H         28.39700        4.62100       61.80000
H         31.09400        6.16400       61.97500
H         29.71500        6.51100       60.90500
H         31.31000        6.24200       60.21300
N         27.38000        2.22500       57.32700
C         26.25900        2.64600       58.16600
C         25.09000        3.11400       57.29800
O         25.31400        3.60300       56.19700
C         26.70600        3.78100       59.09500
H         27.96900        2.96400       56.97200
H         27.55400        1.25300       57.11500
H         25.92900        1.80900       58.77900
H         24.07500        3.01600       57.65300
H         27.01600        4.64500       58.51300
H         27.54100        3.46300       59.70900
H         25.88400        4.08200       59.73900
O         31.03000       13.17500       67.40900
H         30.16500       13.23800       66.99400
H         30.86800       13.41500       68.32500
O         33.05300        7.94100       71.83100
H         33.73000        7.78500       71.16400
H         33.00700        8.89600       71.89600
O         26.60800        7.28700       61.02300
H         27.31800        7.56400       61.60500
H         26.78100        7.74600       60.20000
O         34.79600        7.96300       69.68200
H         35.72000        8.16900       69.81900
H         34.70100        7.91100       68.72800
O         31.97500       13.45300       59.99300
H         31.06000       13.44500       59.71300
H         32.24400       12.55900       60.21500
O         23.96600        3.10300       61.10600
H         23.34700        2.44700       61.42900
H         23.43800        3.66400       60.53200
O         27.94900        7.59400       64.23200
C         28.38400        6.56700       64.75100
N         29.56200        6.61100       65.47100
C         30.49400        7.66600       65.50300
C         30.79000        8.40200       64.35300
C         31.73500        9.41800       64.42500
C         32.37800        9.69400       65.63000
C         32.08200        8.94900       66.76900
C         31.14500        7.92700       66.70800
C         27.72900        5.27900       64.65700
C         26.55800        5.01000       63.94300
C         26.32400        3.69100       64.06100
N         27.33400        3.21900       64.82100
N         28.19600        4.17300       65.21000
H         29.80000        5.76100       66.01100
H         30.31200        8.18400       63.43400
H         31.96600        9.98200       63.56000
H         33.09800       10.46800       65.68300
H         32.57900        9.15700       67.68200
H         30.93000        7.35000       67.56800
H         25.97200        5.70100       63.40100
H         25.55500        3.06900       63.68400
H         27.45100        2.22900       65.09300
