260
2vtm_active_dlpno-mp2_tzvp_rijcosx_tpno.out	Energy:   -5849.9746355
N         26.31900       12.54400       69.08500
C         27.50700       12.20900       68.28900
C         27.30700       12.47800       66.79800
O         28.26200       12.37000       66.02900
C         27.95600       10.74900       68.52400
C         26.90700        9.72700       68.03300
C         28.34800       10.55500       69.99100
C         27.26400        8.27600       68.35500
H         25.44200       12.11900       68.81600
H         26.37600       13.17500       69.87100
H         28.32300       12.85900       68.60500
H         28.86600       10.59300       67.94300
H         26.81700        9.81300       66.95000
H         25.94000        9.94500       68.48000
H         27.46500       10.60400       70.62700
H         29.05600       11.33400       70.27000
H         28.84500        9.59800       70.13200
H         28.27400        8.06100       68.01500
H         26.55600        7.60300       67.87500
H         27.21300        8.11300       69.42400
N         26.08200       12.81700       66.38500
C         25.76400       13.06400       64.99500
C         24.36500       13.63100       64.82000
O         23.56100       13.67600       65.75300
H         25.33100       12.89600       67.05700
H         25.83500       12.13100       64.43800
H         26.48400       13.77300       64.58600
H         24.06700       14.00400       63.85100
N         21.65600       11.36700       66.36100
C         22.36400       10.15100       66.72500
C         23.00700       10.40500       68.07900
O         23.75700       11.36900       68.23400
C         23.42000        9.76900       65.66900
C         23.86700        8.31100       65.88900
C         22.88500        9.98300       64.24600
H         22.22000       12.19500       66.21900
H         20.65200       11.38400       66.25600
H         21.64900        9.33100       66.80800
H         22.80600        9.74000       68.90500
H         24.29400       10.40900       65.78200
H         23.01400        7.63600       65.82800
H         24.32000        8.20400       66.87600
H         24.60600        8.02700       65.14000
H         21.92600        9.47500       64.13700
H         23.60700        9.61400       63.51800
H         22.72900       11.04200       64.05000
N         24.93300        3.05000       69.26300
C         24.46900        4.26100       68.60700
C         22.94300        4.21800       68.53400
O         22.37200        3.30300       67.94800
C         25.10200        4.37900       67.22900
H         24.86800        2.18800       68.73700
H         25.30400        3.06800       70.20200
H         24.78600        5.13100       69.18100
H         22.36200        4.99900       69.00200
H         24.83300        3.51400       66.63100
H         26.18300        4.41900       67.33900
H         24.74900        5.28400       66.73600
N         19.74200        5.96100       67.14000
C         19.15000        6.79600       66.11300
C         17.72600        7.13800       66.51500
O         16.96300        6.23900       66.85100
C         19.14500        6.05200       64.76400
C         19.95400        6.78600       63.69500
C         21.37400        6.22100       63.61300
C         22.23600        7.18200       62.80500
N         23.29200        6.51000       62.05200
H         19.58400        4.96600       67.06700
H         20.28700        6.35500       67.89300
H         19.72700        7.71900       66.04000
H         17.38900        8.16300       66.50400
H         18.12000        5.95700       64.40200
H         19.53600        5.04100       64.88600
H         19.97700        7.85600       63.91000
H         19.47100        6.64600       62.72800
H         21.34100        5.25100       63.12500
H         21.79600        6.10300       64.61300
H         22.71300        7.84500       63.51100
H         21.61000        7.74900       62.11600
H         23.86700        7.17400       61.55400
H         23.87400        5.98800       62.69100
N         27.36300       -2.16800       59.66700
C         27.12100       -1.79500       61.05600
C         25.85100       -2.50900       61.49800
O         24.80500       -2.34700       60.86800
C         26.96700       -0.27300       61.20100
C         26.71500        0.12800       62.66100
C         28.23000        0.44500       60.71800
H         27.32500       -1.43700       58.97000
H         27.56200       -3.12400       59.41000
H         27.96600       -2.12400       61.66300
H         25.86700       -3.15700       62.36200
H         26.12000        0.05700       60.59900
H         27.58700       -0.11500       63.26300
H         25.84800       -0.39900       63.05900
H         26.52800        1.19900       62.72600
H         29.08000        0.17700       61.34300
H         28.05700        1.51200       60.76200
H         28.45900        0.18900       59.68800
N         22.12700        0.62400       66.91900
C         23.24500        0.06100       66.17400
C         24.40500       -0.24500       67.12200
O         24.51600        0.37700       68.17600
C         23.67500        1.03100       65.06600
C         22.66300        1.20200       63.95500
C         22.57000        0.23200       62.94200
C         21.82400        2.33300       63.91900
C         21.63900        0.38700       61.90300
C         20.90200        2.48800       62.87000
C         20.80800        1.51700       61.86200
H         22.29800        1.49300       67.40400
H         21.22600        0.16800       66.95000
H         22.92800       -0.86700       65.70900
H         24.60700        0.67700       64.62900
H         23.87700        2.00300       65.50500
H         23.22000       -0.62800       62.95300
H         21.90000        3.09000       64.68600
H         21.56200       -0.36100       61.13300
H         20.26100        3.35400       62.83300
H         20.09300        1.63200       61.06000
N         25.31900       -1.14000       66.72100
C         26.61200       -1.25900       67.39200
C         27.35700        0.06900       67.28600
O         27.29100        0.73200       66.25900
C         27.48500       -2.39800       66.83800
C         27.68900       -2.32500       65.31800
C         28.82900       -3.18900       64.77300
O         29.85600       -3.36200       65.46200
O         28.69300       -3.62500       63.61200
H         25.17300       -1.65400       65.86300
H         26.42600       -1.46100       68.44600
H         27.03300       -3.35600       67.09100
H         28.45600       -2.33300       67.33000
H         27.90700       -1.30500       65.02700
H         26.75200       -2.61400       64.85200
H         29.44600       -4.11500       63.27200
N         28.08300        0.44300       68.33600
C         28.85000        1.67100       68.36200
C         30.25400        1.42600       67.79600
O         30.96200        0.53200       68.26100
C         28.87000        2.19700       69.79600
C         29.66700        3.46800       69.94100
C         31.03200        3.39000       70.26000
C         29.06700        4.71900       69.70100
C         31.79200        4.56300       70.33800
C         29.83700        5.89000       69.78700
C         31.20200        5.81200       70.09700
H         28.13600       -0.16400       69.14100
H         28.34700        2.42100       67.75200
H         29.29100        1.43100       70.44900
H         27.84900        2.38800       70.11800
H         31.50200        2.42900       70.41800
H         28.02100        4.78000       69.43700
H         32.83400        4.50400       70.57100
H         29.38700        6.85200       69.60700
H         31.80100        6.70800       70.14200
N         30.67700        2.28400       66.85800
C         32.05600        2.39400       66.38600
C         32.57300        3.80500       66.66400
O         31.83400        4.77600       66.55800
C         32.18500        2.06400       64.89300
C         31.96000        0.57700       64.55000
C         30.50300        0.31900       64.13900
C         32.88900        0.13000       63.41100
H         30.02000        2.96600       66.50200
H         32.67600        1.69500       66.94300
H         33.19200        2.34800       64.58400
H         31.48200        2.68500       64.34200
H         32.19800       -0.03000       65.42400
H         30.26400        0.89300       63.24500
H         29.82500        0.61200       64.93800
H         30.35600       -0.74100       63.93600
H         32.65200        0.66500       62.49300
H         32.77400       -0.94000       63.24600
H         33.92600        0.32600       63.67800
N         33.85200        3.93800       67.01300
C         34.35900        5.16700       67.61500
C         34.64400        6.29700       66.62100
O         34.71200        7.45000       67.04800
C         35.61500        4.85200       68.42500
C         35.35400        4.22600       69.77300
C         35.08000        2.90900       70.00100
N         35.33100        4.90500       70.99500
N         34.88500        2.76600       71.34900
C         35.04100        3.97200       71.91800
H         34.45900        3.13100       66.98800
H         33.60100        5.55200       68.29900
H         34.78300        6.08700       65.57100
H         36.11500        5.79700       68.59300
H         36.28100        4.21400       67.84100
H         35.00900        2.12900       69.27100
H         34.65000        1.90500       71.82300
H         34.92100        4.16800       72.97200
N         32.26100        3.64700       59.00400
C         32.69500        3.66700       60.39300
C         33.86400        2.71400       60.59100
O         33.79400        1.56100       60.17600
C         31.53900        3.30900       61.33200
C         30.28600        4.19800       61.22800
C         29.27700        3.74700       62.28500
C         30.57500        5.68400       61.45800
H         31.70900        2.85500       58.70900
H         32.50100        4.39100       58.36500
H         33.03100        4.66700       60.64800
H         34.75600        3.05200       61.09800
H         31.92600        3.37800       62.34500
H         31.24500        2.27500       61.14400
H         29.84200        4.07700       60.24000
H         29.68400        3.92600       63.27900
H         29.08000        2.68500       62.19100
H         28.34600        4.29700       62.16100
H         31.03400        5.83200       62.43600
H         29.64800        6.25400       61.40500
H         31.24400        6.04600       60.68100
N         27.40100        2.16000       57.51100
C         26.28000        2.58400       58.35200
C         25.11300        3.05400       57.48500
O         25.33900        3.53000       56.38300
C         26.71800        3.71900       59.28500
H         27.95200        2.89900       57.09700
H         27.61200        1.18500       57.35400
H         25.95000        1.74400       58.96000
H         26.98900        4.59900       58.70500
H         27.57700        3.41500       59.87400
H         25.89900        3.98100       59.95500
N         23.89100        3.02300       58.02700
C         22.64200        3.45800       57.39700
C         22.31500        2.74700       56.07800
O         21.72600        3.34600       55.18100
C         22.56600        4.99700       57.29600
C         22.66800        5.72100       58.64400
O         22.45500        5.07100       59.69300
O         22.93200        6.94300       58.61500
H         23.81000        2.67300       58.97000
H         21.85800        3.14100       58.08300
H         22.60300        1.71600       55.93600
H         21.61200        5.27500       56.84600
H         23.35700        5.35100       56.63100
H         22.50700        5.58200       60.50400
O         26.12200        7.13000       61.05100
H         26.74700        7.08900       61.77700
H         26.64400        7.43000       60.30500
O         23.96600        2.15800       60.82500
H         23.12300        1.81400       61.12400
H         23.98400        3.05500       61.16700
N         24.30800        4.05600       62.93800
C         25.27900        4.23700       63.50400
C         26.47800        4.40900       64.25000
C         27.12900        3.36500       64.87300
N         28.15900        3.76200       65.57400
N         28.17800        5.10500       65.38200
C         29.07600        5.98800       65.93800
C         29.00700        7.28400       65.53400
C         27.98000        7.70500       64.63000
C         27.18300        5.53900       64.54300
N         27.09600        6.88000       64.16300
H         26.81500        2.36200       64.78900
H         29.73900        5.57700       66.64500
H         29.69700        7.99800       65.90100
H         27.93400        8.72400       64.34400
