389
2vtn_active_dlpno-mp2_tzvp_rijcosx_tpno.out	Energy:   -8994.3936883
N         26.36100       12.36200       67.94500
C         27.49800       12.01500       67.08300
C         27.22200       12.28100       65.59500
O         28.09300       12.02300       64.76200
C         27.98900       10.57200       67.35500
C         26.99100        9.51200       66.83700
C         28.31600       10.39400       68.84900
C         27.33500        8.08000       67.25800
H         25.48800       11.87900       67.78400
H         26.44800       13.05900       68.67100
H         28.32600       12.67500       67.34100
H         26.27400       12.69200       65.28300
H         28.92600       10.44000       66.81100
H         26.98000        9.54300       65.74700
H         25.99000        9.74200       67.19800
H         27.39800       10.37700       69.43500
H         28.94800       11.21300       69.19300
H         28.86100        9.46500       69.00400
H         28.35900        7.84900       66.97100
H         26.65600        7.37700       66.78100
H         27.23100        7.97700       68.33400
N         21.71500       11.04000       65.19500
C         22.41600        9.87200       65.71400
C         23.04600       10.24400       67.05500
O         23.67000       11.29800       67.18700
C         23.47700        9.34400       64.72200
C         23.91600        7.92700       65.13400
C         22.96400        9.28200       63.27600
H         22.28900       11.83400       64.94400
H         20.71100       11.05500       65.09100
H         21.68800        9.07800       65.87500
H         22.94400        9.57600       67.89700
H         24.34600       10.00300       64.74300
H         23.05700        7.25300       65.13400
H         24.35200        7.94000       66.13200
H         24.66400        7.55100       64.43600
H         22.11100        8.61300       63.22200
H         23.74900        8.90600       62.62100
H         22.67700       10.27400       62.92800
N         25.49900        8.45600       70.30400
C         26.09000        7.42600       71.14000
C         25.20200        7.30500       72.37000
O         24.85000        8.30900       72.99100
C         27.52800        7.79200       71.50600
C         28.21100        6.70500       72.35200
C         29.70300        7.02600       72.49800
C         30.45600        5.84100       73.10300
N         31.90900        6.08100       73.10000
H         25.81300        9.40600       70.44700
H         24.80200        8.23200       69.60800
H         26.09900        6.48000       70.59400
H         24.87700        6.33000       72.70100
H         27.53000        8.73800       72.04400
H         28.09000        7.92000       70.58400
H         28.09300        5.73800       71.86100
H         27.75200        6.65000       73.34000
H         29.83400        7.90800       73.12600
H         30.11700        7.24600       71.51600
H         30.24300        4.95000       72.51000
H         30.11600        5.68300       74.12700
H         32.11500        6.90600       73.64900
H         32.22400        6.25100       72.15300
N         24.95400        2.88800       68.79400
C         24.52000        4.08000       68.08600
C         22.99500        4.04200       67.94500
O         22.43400        3.04400       67.51000
C         25.22700        4.15200       66.73900
H         24.78700        2.00300       68.33400
H         25.40000        2.94000       69.69900
H         24.80800        4.96400       68.65000
H         22.40900        4.90200       68.23300
H         25.01800        3.25000       66.17500
H         26.30200        4.22100       66.89500
H         24.88200        5.02000       66.17800
N         19.75600        5.94900       66.34400
C         19.24200        6.89000       65.35500
C         17.74900        7.10400       65.58000
O         16.97400        6.16500       65.43300
C         19.53800        6.38800       63.93400
C         19.29500        7.50900       62.91400
C         19.43900        7.00300       61.47700
C         19.49800        8.20200       60.52800
N         19.36900        7.78300       59.12200
H         19.57800        4.96500       66.19600
H         20.27300        6.27100       67.15000
H         19.75600        7.84100       65.47700
H         17.37600        8.07700       65.86600
H         18.89700        5.53800       63.70400
H         20.58000        6.07000       63.87000
H         20.00900        8.30800       63.09100
H         18.29400        7.92200       63.04000
H         18.58200        6.37800       61.23500
H         20.34600        6.40800       61.37200
H         20.45600        8.70400       60.66700
H         18.69400        8.89700       60.77200
H         19.45000        8.58300       58.51400
H         20.11500        7.13400       58.89900
N         27.23700       -2.28200       59.15800
C         26.95900       -1.99600       60.56700
C         25.77100       -2.84200       61.00500
O         24.72900       -2.81200       60.34500
C         26.60100       -0.52300       60.80400
C         26.61500       -0.18600       62.29900
C         27.57900        0.42300       60.13600
H         27.18700       -1.51800       58.49700
H         27.47100       -3.21600       58.85400
H         27.84300       -2.24800       61.15600
H         25.83900       -3.46200       61.88600
H         25.60700       -0.31400       60.40300
H         27.61500       -0.33800       62.70800
H         25.90300       -0.80600       62.84000
H         26.33500        0.85500       62.43300
H         28.59300        0.24800       60.49000
H         27.24800        1.42300       60.38800
H         27.55300        0.31300       59.06300
N         22.10100        0.42200       66.58700
C         23.20000       -0.07900       65.78200
C         24.38800       -0.43000       66.67800
O         24.62100        0.20800       67.70200
C         23.59900        0.97200       64.73400
C         22.62800        1.17200       63.58800
C         22.52100        0.19100       62.58700
C         21.88000        2.36100       63.48000
C         21.64700        0.38000       61.50500
C         21.01300        2.55400       62.39000
C         20.88200        1.55400       61.41200
H         22.29400        1.23200       67.15700
H         21.19200       -0.01700       66.57700
H         22.88300       -0.97800       65.26000
H         24.56200        0.69300       64.30800
H         23.72600        1.92500       65.23300
H         23.11500       -0.70800       62.64200
H         21.98400        3.14000       64.22300
H         21.56100       -0.38000       60.74600
H         20.45300        3.47200       62.30100
H         20.21200        1.69400       60.57600
N         25.19100       -1.39300       66.21800
C         26.57300       -1.61500       66.62600
C         27.31200       -0.28100       66.59800
O         27.37200        0.31900       65.53500
C         27.20100       -2.55800       65.58600
C         28.72400       -2.72900       65.70800
C         29.32800       -3.53300       64.55300
O         30.33700       -4.22400       64.81000
O         28.82200       -3.43000       63.41200
H         24.87100       -1.92600       65.42200
H         26.61200       -2.06000       67.62000
H         26.97700       -2.16100       64.59400
H         26.73300       -3.53500       65.67700
H         28.94200       -3.22200       66.65600
H         29.21300       -1.75600       65.71500
H         29.26900       -3.92900       62.72400
N         27.92400        0.14300       67.70800
C         28.71100        1.36600       67.76400
C         30.09500        1.15100       67.14200
O         30.82100        0.23500       67.53100
C         28.83200        1.85300       69.21300
C         29.52100        3.19700       69.32700
C         28.81500        4.37300       69.01400
C         30.87800        3.27100       69.69300
C         29.46800        5.61500       69.05700
C         31.52100        4.51800       69.74500
C         30.82200        5.68700       69.41600
H         27.88100       -0.42500       68.54200
H         28.18400        2.13900       67.20200
H         29.37900        1.11300       69.79900
H         27.83900        1.94400       69.64200
H         27.77700        4.32500       68.72500
H         31.43200        2.37100       69.91600
H         28.93400        6.51400       68.80700
H         32.55900        4.58100       70.02000
H         31.32600        6.64300       69.43100
N         30.48900        2.06500       66.24600
C         31.86700        2.23300       65.79000
C         32.33900        3.63300       66.17500
O         31.52500        4.53800       66.33200
C         32.01600        1.98000       64.28100
C         31.90900        0.49100       63.89300
C         30.45200        0.06700       63.65800
C         32.71600        0.18700       62.62400
H         29.82700        2.77100       65.95500
H         32.50300        1.52300       66.31400
H         33.00100        2.34400       63.98500
H         31.27100        2.56600       63.74600
H         32.33000       -0.11300       64.69700
H         30.00800        0.66700       62.86400
H         29.87000        0.20100       64.56500
H         30.41000       -0.98600       63.38400
H         32.30200        0.72100       61.77200
H         32.68700       -0.88200       62.42400
H         33.75500        0.48100       62.76300
N         33.65000        3.80200       66.37200
C         34.19400        4.97700       67.05300
C         34.54100        6.14600       66.12000
O         34.74900        7.25200       66.61300
C         35.40200        4.55800       67.90300
C         35.05700        3.81400       69.17300
C         34.64700        2.51800       69.24700
N         35.13500        4.32500       70.47300
N         34.48500        2.21300       70.57100
C         34.77600        3.31400       71.28100
H         34.27900        3.03600       66.17200
H         33.43500        5.35600       67.73800
H         35.93200        5.45500       68.19900
H         36.08600        3.95700       67.30100
H         34.47200        1.85800       68.42900
H         34.21500        1.31200       70.94000
H         34.72600        3.37400       72.35700
N         34.61500        5.94400       64.80000
C         35.00300        6.99600       63.85900
C         34.40500        6.70300       62.47800
O         34.28100        5.54100       62.09900
C         36.54700        7.06800       63.86300
C         37.22000        7.90500       62.76900
C         37.50400        9.35300       63.14200
N         38.75800        9.76800       62.96900
O         36.62000       10.08900       63.56500
H         34.46000        5.01600       64.42800
H         34.60400        7.95100       64.19700
H         36.93300        6.05300       63.76800
H         36.87800        7.44500       64.83100
H         36.64100        7.88100       61.86200
H         38.17000        7.43200       62.54200
H         39.00700       10.71800       63.19300
H         39.45100        9.11900       62.62900
N         34.08800        7.76000       61.71300
C         33.74500        7.66100       60.29300
C         34.92800        8.01500       59.37500
O         35.86700        8.70100       59.78000
C         32.46500        8.45200       59.97300
C         32.59100        9.97000       60.06600
O         33.47600       10.53400       59.39300
O         31.75200       10.56900       60.77100
H         34.19100        8.68700       62.09800
H         33.50700        6.62000       60.09700
H         34.93500        7.65400       58.35700
H         31.68000        8.13200       60.65900
H         32.14400        8.20300       58.96200
H         33.47800       11.49200       59.44700
N         36.00500       11.95900       58.89800
C         36.83400       12.45600       59.99000
C         38.21000       11.78000       60.01300
O         39.16600       12.40400       60.46600
C         36.08500       12.24700       61.31500
C         35.09100       13.38300       61.62700
C         33.75700       12.86700       62.18000
C         32.89800       14.01000       62.73000
N         31.50800       13.57900       62.98800
H         35.19600       11.40000       59.13900
H         36.23000       12.16400       57.93500
H         37.00400       13.52500       59.84500
H         38.33600       10.77500       59.63800
H         36.81200       12.21800       62.12600
H         35.57200       11.28300       61.28700
H         34.88300       13.95700       60.72200
H         35.55000       14.05000       62.35800
H         33.92800       12.13000       62.96600
H         33.22800       12.40100       61.35700
H         32.88600       14.82400       62.00500
H         33.34400       14.37000       63.65800
H         31.49700       12.81900       63.65400
H         31.08600       13.26600       62.12400
N         31.13400        9.97600       55.33700
C         30.52200       10.05400       56.67000
C         29.58500        8.87200       57.00000
O         29.30500        8.64700       58.17500
C         29.82300       11.41100       56.89700
C         28.92500       11.88600       55.75200
C         29.65300       12.78700       54.74700
N         29.55000       14.09900       54.93900
O         30.30400       12.32400       53.81500
H         30.77400       10.58000       54.61200
H         31.89300        9.33600       55.15100
H         31.33500       10.00900       57.39500
H         30.57200       12.17500       57.09700
H         29.19900       11.32100       57.78600
H         28.08200       12.43900       56.16500
H         28.50400       11.01700       55.27200
H         29.97400       14.72700       54.27200
H         28.98500       14.44800       55.69800
N         29.14300        8.09400       55.99900
C         28.37400        6.85200       56.16800
C         29.25800        5.60200       56.25100
O         28.75100        4.48200       56.26700
C         27.39700        6.69000       54.99200
C         26.18700        7.61200       55.00900
N         25.85400        8.22500       56.14100
O         25.50400        7.72600       54.00100
H         29.42400        8.32100       55.05600
H         27.81600        6.89900       57.10500
H         30.33200        5.70500       56.29700
H         27.01300        5.67600       54.98700
H         27.93800        6.82600       54.05600
H         24.98300        8.73300       56.18000
H         26.37900        8.04600       56.98200
N         32.12400        3.61800       58.33300
C         32.51300        3.56100       59.73400
C         33.67600        2.60700       59.92400
O         33.66000        1.50600       59.38800
C         31.33800        3.11000       60.59700
C         30.11300        4.03400       60.60300
C         29.08600        3.38400       61.52300
C         30.41500        5.44100       61.12500
H         31.68400        2.80000       57.93400
H         32.28900        4.44600       57.77800
H         32.83000        4.54500       60.07200
H         34.51900        2.89900       60.53200
H         31.70500        3.02600       61.61700
H         31.02900        2.12000       60.25900
H         29.69600        4.10400       59.59800
H         29.44900        3.39100       62.54800
H         28.94900        2.35200       61.23600
H         28.13900        3.91000       61.44500
H         30.85800        5.38700       62.12100
H         29.49500        6.02400       61.17000
H         31.10600        5.93700       60.44800
N         27.10300        2.02400       56.51100
C         26.06600        2.49600       57.42900
C         25.08900        3.41100       56.70500
O         25.43300        3.98700       55.68200
C         26.70400        3.29100       58.57300
H         27.61000        2.74000       56.00900
H         27.30100        1.04200       56.38800
H         25.52000        1.64500       57.84100
H         26.98400        4.28700       58.23500
H         27.61000        2.80000       58.90900
H         25.99200        3.38700       59.39500
N         23.94400        3.68400       57.33200
C         22.99400        4.71000       56.92000
C         22.46100        4.44300       55.51000
O         22.41900        5.33800       54.66600
C         23.61500        6.11400       57.11600
C         22.75800        7.10100       57.90900
O         22.98300        8.32000       57.73800
O         21.91700        6.64400       58.71300
H         23.73600        3.18400       58.18300
H         22.14200        4.59800       57.59000
H         22.11500        3.45300       55.25200
H         23.82400        6.55200       56.14400
H         24.57500        6.02600       57.62400
H         22.45300        8.91000       58.27900
O         32.99400        7.88300       71.18200
H         33.76900        7.71800       70.63300
H         32.99400        8.83400       71.30600
O         35.14200        7.58500       69.38100
H         36.05300        7.86300       69.47200
H         35.00000        7.54300       68.43100
O         36.44600        9.70900       66.41700
H         35.77200        9.03900       66.29100
H         36.54500       10.11000       65.55100
O         31.05500       13.23100       59.75400
H         30.26500       12.79600       59.43200
H         31.65700       12.50400       59.94200
O         23.25000        2.58600       59.86100
H         22.32100        2.52700       60.08300
H         23.64100        3.04900       60.60700
O         26.65100        9.40600       62.23100
H         27.28600        9.90500       61.71600
H         27.18900        8.91500       62.85700
C         24.21900        6.17200       61.00800
C         24.76400        5.10800       61.92300
O         24.22400        4.02500       62.03600
N         25.90000        5.42100       62.61700
C         26.62500        4.55900       63.49700
C         26.35700        3.26600       63.75600
N         27.33900        2.88200       64.59300
N         28.20800        3.86200       64.89400
C         27.77800        4.91000       64.20800
C         28.46100        6.18500       64.20600
O         28.03500        7.20400       63.66400
N         29.66400        6.22600       64.87900
C         30.54100        7.32000       64.98000
C         31.13700        7.55900       66.22200
C         32.01900        8.62000       66.36500
C         32.29200        9.41400       65.25600
F         33.15100       10.44400       65.38800
C         31.71400        9.18100       64.01200
C         30.82900        8.12000       63.86900
H         24.80200        7.07400       61.13700
H         23.18500        6.32000       61.28400
H         24.31000        5.78500       60.00500
H         26.28000        6.37000       62.47300
H         25.59300        2.61100       63.43300
H         27.43200        1.93300       64.98300
H         29.91700        5.37100       65.40300
H         30.91700        6.93500       67.04600
H         32.47900        8.81600       67.29900
H         31.94700        9.80000       63.18700
H         30.38700        7.91600       62.92800
