484
2vto_active_dlpno-mp2_tzvp_rijcosx_tpno.out	Energy:  -11355.9209184
N         26.71300       12.18200       68.93500
C         27.82900       11.77200       68.07200
C         27.60100       12.12200       66.59700
O         28.49800       11.91500       65.77900
C         28.19600       10.28800       68.28800
C         27.07500        9.33200       67.82400
C         28.58600       10.07100       69.75800
C         27.40700        7.85300       68.03700
H         25.81900       11.73400       68.78700
H         26.83500       12.88500       69.65000
H         28.70800       12.34500       68.36500
H         26.66100       12.54700       66.27700
H         29.08300       10.07900       67.68800
H         26.89900        9.48600       66.76000
H         26.15700        9.55500       68.36400
H         27.70700       10.14600       70.39800
H         29.31400       10.82200       70.06900
H         29.04800        9.09400       69.87000
H         28.38600        7.62800       67.61700
H         26.65700        7.22700       67.55600
H         27.40200        7.63100       69.10100
N         24.46300       14.17900       63.54000
C         23.13700       14.41400       62.98600
C         23.12200       13.74200       61.61400
O         23.73600       14.23800       60.66800
C         22.86500       15.92400       62.86200
C         22.61200       16.63500       64.20200
C         21.20000       16.46500       64.77500
O         20.38300       15.73400       64.17200
O         20.96400       17.08600       65.83800
H         25.23800       14.35200       62.91600
H         24.59800       13.86200       64.48900
H         22.36900       13.96300       63.61600
H         22.00800       16.08300       62.20600
H         23.72800       16.39300       62.38500
H         22.77900       17.70200       64.04900
H         23.33700       16.29200       64.94100
H         20.07800       16.96800       66.18800
N         22.43100       12.60200       61.51100
C         22.15700       11.96700       60.23000
C         21.13500       12.76500       59.41600
O         20.57600       13.75700       59.88800
H         21.97500       12.22500       62.33100
H         21.77000       10.96300       60.40300
H         23.08200       11.89000       59.65800
N         20.82200       12.27000       58.21200
C         19.74500       12.82600       57.38300
C         18.39400       12.69700       58.10000
O         17.48200       13.49400       57.88300
C         19.66200       12.07300       56.03900
O         20.94600       11.84500       55.49300
C         18.83400       12.85000       55.01000
H         21.30500       11.45300       57.86700
H         19.95300       13.88000       57.19500
H         19.18900       11.10400       56.20700
H         19.28000       13.83000       54.84000
H         17.81300       12.98100       55.36500
H         18.80100       12.29900       54.07000
H         20.83800       11.34200       54.68000
N         18.28000       11.67300       58.95200
C         17.03200       11.18500       59.50300
C         16.89000       11.46800       60.99400
O         16.07700       10.81500       61.62700
C         16.89800        9.69300       59.16800
C         16.78700        9.38800       57.69600
C         15.70200        9.94200       57.01900
C         17.69800        8.56600       57.01000
C         15.48600        9.69700       55.66400
C         17.47400        8.27200       55.65400
C         16.35900        8.82500       54.99000
O         16.06900        8.46600       53.72100
H         19.10900       11.13400       59.15300
H         16.21200       11.71500       59.02300
H         16.01600        9.28400       59.65200
H         17.74200        9.17700       59.57100
H         15.02800       10.54200       57.57700
H         18.54900        8.13600       57.51200
H         14.63200       10.11900       55.15600
H         18.13900        7.60700       55.12300
H         16.54800        7.68700       53.43600
N         17.63300       12.42600       61.55500
C         17.54800       12.78700       62.96400
C         18.85100       12.50200       63.70200
O         19.83700       12.05600       63.10900
H         18.31000       12.92100       60.99200
H         16.74400       12.24000       63.45400
H         17.31500       13.84700       63.04700
H         18.91200       12.69400       64.76300
N         21.89600       11.24800       66.15900
C         22.58400       10.03700       66.58400
C         23.24900       10.32500       67.92900
O         23.99500       11.29400       68.06600
C         23.61800        9.57800       65.53800
C         24.16900        8.19300       65.91500
C         23.02400        9.49300       64.12600
H         22.46300       12.07900       66.05800
H         20.90400       11.25700       65.97300
H         21.85500        9.23700       66.71200
H         23.06200        9.67100       68.76800
H         24.44200       10.29300       65.51500
H         23.36500        7.45600       65.92500
H         24.62100        8.22500       66.90400
H         24.93100        7.88700       65.19800
H         22.22600        8.75300       64.10400
H         23.81000        9.20700       63.43100
H         22.63300       10.46100       63.81200
N         25.56500        8.51000       71.20700
C         26.14900        7.46700       72.03200
C         25.25400        7.31100       73.25400
O         24.91400        8.29800       73.90600
C         27.56900        7.85900       72.42900
C         28.29400        6.77100       73.23200
C         29.76400        7.16700       73.43800
C         30.57200        5.95500       73.90000
N         31.99600        6.29700       74.04700
H         25.83000        9.46200       71.41400
H         24.92100        8.29200       70.46000
H         26.18500        6.53600       71.46600
H         24.91400        6.32900       73.54900
H         27.53000        8.78400       72.99800
H         28.13200        8.03800       71.52200
H         28.24400        5.83200       72.68100
H         27.81200        6.62500       74.20000
H         29.84300        7.96800       74.17200
H         30.17900        7.53300       72.49900
H         30.47000        5.16600       73.15400
H         30.18300        5.60000       74.85500
H         32.10200        7.01500       74.75300
H         32.35000        6.65900       73.17000
N         25.08400        2.98600       69.55400
C         24.64600        4.17000       68.82100
C         23.11800        4.15600       68.66600
O         22.54800        3.19100       68.17500
C         25.38000        4.25800       67.48900
H         25.03100        2.09800       69.07400
H         25.42500        3.05200       70.50200
H         24.93100        5.05600       69.38300
H         22.54000        5.00800       68.99400
H         25.18800        3.36500       66.90400
H         26.45100        4.33900       67.67200
H         25.04400        5.13600       66.93500
N         19.90500        6.14400       67.21500
C         19.39700        7.11900       66.26000
C         17.91100        7.33800       66.51300
O         17.14800        6.38300       66.43400
C         19.67700        6.64800       64.82700
C         19.32900        7.74100       63.80800
C         19.57500        7.24400       62.38300
C         19.50300        8.42200       61.41600
N         19.71800        7.97200       60.03000
H         19.73800        5.16400       67.02500
H         20.40800        6.43600       68.04000
H         19.92400        8.05800       66.40400
H         17.53600        8.32000       66.76000
H         19.09300        5.75100       64.61600
H         20.73700        6.40600       64.73500
H         19.94800        8.61800       63.99600
H         18.28200        8.03000       63.90600
H         18.82300        6.50100       62.12300
H         20.55900        6.78500       62.31100
H         20.26900        9.15100       61.68100
H         18.52400        8.89700       61.50900
H         18.98400        7.32200       59.78300
H         20.61100        7.51100       59.91800
N         27.32800       -2.07600       59.79900
C         27.08100       -1.75200       61.20400
C         25.84100       -2.52000       61.65100
O         24.78000       -2.37700       61.04600
C         26.87400       -0.24400       61.42700
C         26.85200        0.07500       62.92700
C         27.99400        0.59000       60.81100
H         27.28800       -1.32700       59.12000
H         27.53200       -3.02300       59.51500
H         27.94600       -2.07300       61.78500
H         25.89500       -3.18900       62.49700
H         25.92600        0.06800       60.98500
H         27.81500       -0.17800       63.36800
H         26.06700       -0.49300       63.42400
H         26.66300        1.13500       63.08100
H         28.95900        0.31400       61.23300
H         27.78100        1.62900       61.02500
H         28.02300        0.45800       59.73600
N         22.19600        0.61500       67.10200
C         23.29300        0.07000       66.31700
C         24.46000       -0.27200       67.23200
O         24.65400        0.40000       68.24400
C         23.75100        1.09000       65.26900
C         22.73800        1.41000       64.19700
C         22.44600        0.45100       63.21100
C         22.11300        2.67100       64.16200
C         21.52400        0.74600       62.19700
C         21.19200        2.96700       63.14200
C         20.89300        2.00100       62.16400
H         22.38500        1.47000       67.60200
H         21.29400        0.16300       67.14300
H         22.95800       -0.82900       65.80900
H         24.65000        0.71500       64.78300
H         24.02100        2.01100       65.77600
H         22.93600       -0.50900       63.22600
H         22.34900        3.41800       64.90600
H         21.30300        0.00900       61.44100
H         20.73000        3.94100       63.09900
H         20.20100        2.23000       61.36900
N         25.31300       -1.22200       66.82200
C         26.62400       -1.38700       67.44300
C         27.38500       -0.06300       67.36300
O         27.24500        0.66600       66.38500
C         27.44400       -2.52600       66.81000
C         27.91400       -2.22400       65.38000
C         28.93000       -3.23000       64.84800
O         30.08400       -3.21900       65.33000
O         28.56800       -3.96600       63.91000
H         25.10100       -1.76100       65.99300
H         26.45800       -1.63200       68.49000
H         26.85200       -3.44000       66.80900
H         28.32500       -2.68800       67.43200
H         28.39800       -1.25500       65.34300
H         27.04000       -2.18700       64.73400
H         29.25000       -4.54600       63.56300
N         28.19500        0.23300       68.37600
C         28.95900        1.45900       68.47600
C         30.33400        1.26400       67.84600
O         31.05400        0.33600       68.21200
C         29.08000        1.85400       69.94900
C         29.73600        3.20200       70.13300
C         28.98300        4.37300       69.93600
C         31.10700        3.29000       70.43600
C         29.59900        5.62800       70.05500
C         31.71600        4.55000       70.55400
C         30.96400        5.71800       70.36300
H         28.28700       -0.43100       69.13100
H         28.42900        2.25700       67.95400
H         29.65300        1.09300       70.48100
H         28.08600        1.88900       70.39000
H         27.93600        4.31000       69.67900
H         31.69700        2.39300       70.55700
H         29.03000        6.52600       69.90500
H         32.76500        4.62800       70.77600
H         31.43500        6.68600       70.44000
N         30.72200        2.19100       66.96500
C         32.09000        2.34300       66.48500
C         32.60100        3.71200       66.91800
O         31.81600        4.61900       67.18300
C         32.19800        2.11500       64.96800
C         32.03500        0.62600       64.59300
C         30.56600        0.25400       64.36700
C         32.83600        0.25800       63.33800
H         30.06600        2.91200       66.69700
H         32.72400        1.60500       66.97300
H         33.18600        2.45000       64.64900
H         31.45400        2.72200       64.45500
H         32.42500        0.01700       65.40700
H         30.14800        0.84000       63.55000
H         29.98300        0.44000       65.26500
H         30.49000       -0.80500       64.13200
H         32.44800        0.78500       62.46800
H         32.76600       -0.81600       63.16900
H         33.88500        0.51200       63.48000
N         33.91900        3.83600       67.07100
C         34.52100        4.95300       67.78400
C         34.92300        6.11800       66.87100
O         35.22700        7.19200       67.38900
C         35.69300        4.43600       68.62800
C         35.28800        3.70300       69.88700
C         34.87500        2.40500       69.97100
N         35.30000        4.24800       71.17400
N         34.63200        2.14300       71.29100
C         34.89000        3.26100       71.98800
H         34.52100        3.06800       66.80400
H         33.78100        5.35800       68.47500
H         36.27100        5.29300       68.94700
H         36.34200        3.80300       68.02100
H         34.75300        1.70600       69.17100
H         34.32000        1.25800       71.66700
H         34.77800        3.35000       73.05700
N         34.92100        5.94600       65.54100
C         35.25100        7.01800       64.60400
C         34.62400        6.76700       63.22600
O         34.34400        5.62300       62.87800
C         36.78500        7.13900       64.55500
C         37.27400        8.38000       63.79600
C         38.76500        8.67300       63.96000
O         39.34900        9.34800       63.12100
N         39.39500        8.23000       65.04700
H         34.69400        5.03900       65.15400
H         34.84100        7.95100       64.99100
H         37.22000        6.24300       64.11400
H         37.13500        7.21500       65.58500
H         36.71000        9.25200       64.12900
H         37.09000        8.21900       62.73800
H         40.37100        8.44800       65.18100
H         38.89300        7.68200       65.72900
N         34.43300        7.83500       62.43700
C         34.04800        7.75600       61.02600
C         35.21200        8.11900       60.09000
O         36.19700        8.73300       60.50500
C         32.78000        8.58200       60.75500
C         32.99900       10.08200       60.88400
O         33.65400       10.64000       59.98300
O         32.51300       10.66500       61.87500
H         34.64400        8.75300       62.80000
H         33.79000        6.72500       60.80900
H         35.16600        7.82900       59.05000
H         31.99800        8.28100       61.45100
H         32.43200        8.37200       59.74300
H         32.67700       11.61100       61.91000
N         36.36300       11.96800       59.65500
C         37.24700       12.47800       60.70500
C         38.64400       11.87400       60.61300
O         39.61700       12.59200       60.82900
C         36.66800       12.22600       62.10100
C         35.24200       12.76300       62.20100
C         34.77800       13.02800       63.63700
C         33.25000       13.14800       63.77000
N         32.58100       13.60200       62.53100
H         35.56500       11.40500       59.92000
H         36.54700       12.17400       58.68300
H         37.34100       13.55500       60.56600
H         38.77600       10.83200       60.36200
H         37.30000       12.72700       62.83300
H         36.66300       11.15400       62.31100
H         34.59500       12.02100       61.75900
H         35.15400       13.68700       61.62800
H         35.24100       13.95500       63.97800
H         35.11400       12.21700       64.28500
H         33.02400       13.84100       64.58100
H         32.84900       12.16700       64.03100
H         31.58900       13.69600       62.69500
H         32.94700       14.49800       62.24500
N         31.23200       10.11300       55.88100
C         30.61100       10.34900       57.18400
C         29.79600        9.15100       57.70000
O         29.66000        9.01600       58.91500
C         29.70000       11.58900       57.12100
C         30.42800       12.92100       56.87800
C         30.88700       13.17700       55.43600
O         30.50900       12.49100       54.49300
N         31.70700       14.20000       55.24100
H         30.86300       10.63200       55.09600
H         31.99500        9.46100       55.77100
H         31.40400       10.54100       57.90800
H         29.19100       11.67300       58.08300
H         28.93400       11.44500       56.36300
H         31.28500       12.97000       57.54800
H         29.75400       13.73200       57.15800
H         32.04000       14.38900       54.30400
H         32.01900       14.75800       56.01900
N         29.27100        8.28600       56.81600
C         28.55900        7.06100       57.20100
C         29.37300        5.78800       56.92200
O         28.81400        4.70200       56.80100
C         27.11600        7.05600       56.66700
C         26.96800        7.02500       55.14900
O         27.82400        6.53800       54.41700
N         25.84000        7.53400       54.66300
H         29.42300        8.44200       55.82800
H         28.45500        7.07600       58.28500
H         30.44800        5.84900       56.83200
H         26.60900        7.94300       57.05200
H         26.59400        6.19000       57.07100
H         25.68900        7.52800       53.66200
H         25.15100        7.92100       55.28700
N         32.27300        3.80200       59.02900
C         32.71700        3.78200       60.42000
C         33.86500        2.80200       60.59900
O         33.82700        1.71500       60.03400
C         31.57100        3.40300       61.35700
C         30.32900        4.30200       61.31200
C         29.36300        3.76900       62.36300
C         30.61900        5.77500       61.61500
H         31.82800        2.96900       58.66800
H         32.40500        4.61900       58.44900
H         33.07200        4.76800       60.70600
H         34.70900        3.06200       61.22000
H         31.96800        3.41900       62.37000
H         31.26100        2.38300       61.12400
H         29.85900        4.23000       60.33200
H         29.78400        3.92900       63.35400
H         29.20200        2.70400       62.23600
H         28.41400        4.28600       62.25900
H         31.13900        5.87100       62.56900
H         29.68600        6.33900       61.65600
H         31.23500        6.19000       60.82100
N         27.50500        2.11500       57.43600
C         26.42400        2.57700       58.30500
C         25.28500        3.15500       57.47300
O         25.50600        3.56400       56.34000
C         26.94800        3.63500       59.28000
H         28.09500        2.82600       57.02500
H         27.65500        1.13300       57.25400
H         26.03900        1.73600       58.88300
H         27.16400        4.56100       58.75200
H         27.86300        3.29000       59.74700
H         26.19700        3.83300       60.04400
N         24.10400        3.30700       58.07800
C         22.90800        3.90700       57.48000
C         22.29900        3.08500       56.33800
O         21.49100        3.61500       55.57900
C         23.16000        5.39300       57.10200
C         22.41500        6.40200       57.97800
O         22.13900        6.08100       59.15600
O         22.12600        7.50400       57.46100
H         24.00600        2.96000       59.02400
H         22.15000        3.87600       58.26100
H         22.57700        2.05100       56.20100
H         22.86900        5.56400       56.06500
H         24.22300        5.62300       57.15400
H         22.35000        7.72300       56.55400
N         18.17800        2.85000       54.95900
C         17.36500        3.95900       55.44900
C         16.82600        4.85000       54.31700
O         15.87000        5.58100       54.55400
C         18.15900        4.79700       56.47200
C         17.97100        4.34500       57.93000
C         18.62200        2.99300       58.20100
C         18.57600        5.38800       58.87000
H         19.15700        2.83700       55.21200
H         17.77700        2.12100       54.38600
H         16.49800        3.53900       55.96000
H         17.27800        4.83200       53.33600
H         17.79600        5.81600       56.42000
H         19.21800        4.81600       56.21100
H         16.90600        4.27900       58.15200
H         19.67900        3.05200       57.94600
H         18.14300        2.21900       57.60500
H         18.51700        2.73300       59.25400
H         19.63400        5.52000       58.64300
H         18.46800        5.07300       59.90700
H         18.04400        6.32600       58.73600
O         32.69600       11.68900       69.57700
H         32.09900       11.92600       70.29000
H         33.55700       11.64100       69.99400
O         33.12100        8.07000       72.04100
H         33.87100        7.90100       71.46300
H         33.13400        9.02000       72.17200
O         35.18800        7.44700       70.22500
H         35.23600        7.65400       69.28700
H         35.62300        6.59700       70.30400
O         36.62000        9.95900       70.45200
H         36.26100        9.07400       70.53600
H         37.34400        9.97900       71.08600
O         23.32600        3.39100       60.82800
H         23.18100        4.27700       60.49000
H         23.65300        3.53000       61.71900
O         28.44300       10.17300       63.32600
H         28.50800       10.79000       64.05800
H         28.64500        9.32100       63.71800
F         33.65200       10.61500       66.50500
C         32.78400        9.59800       66.33200
C         32.31800        9.33400       65.04900
C         31.42400        8.28800       64.85800
C         31.01600        7.53300       65.96300
N         30.12100        6.45800       65.81000
C         28.94400        6.47000       65.09300
O         28.59500        7.50800       64.53200
C         28.19300        5.23100       65.06800
N         28.53400        4.14700       65.74900
N         27.62600        3.21800       65.38800
C         26.70300        3.67500       64.51700
C         27.05400        4.95900       64.30300
N         26.45100        5.88400       63.39900
C         25.28600        5.71700       62.69800
O         24.58400        4.73300       62.90000
C         24.92600        6.78400       61.77600
C         23.58800        7.17100       61.66100
C         23.23300        8.23500       60.84200
C         24.20200        8.90200       60.10200
C         25.53400        8.51100       60.18900
C         25.89700        7.45800       61.02100
C         31.50000        7.80000       67.24800
C         32.39100        8.84900       67.43700
H         32.64200        9.91900       64.23100
H         31.06500        8.06200       63.88700
H         30.32100        5.59500       66.34200
H         27.65000        2.25400       65.75900
H         25.92400        3.06700       64.13600
H         26.94900        6.77500       63.24500
H         22.84400        6.65700       62.21300
H         22.22300        8.53500       60.77600
H         23.92500        9.70300       59.46800
H         26.27300        9.02000       59.62500
H         26.91500        7.17100       61.08000
H         31.18600        7.21000       68.06900
H         32.76500        9.07300       68.40200
