479
2vtq_active_dlpno-mp2_tzvp_rijcosx_tpno.out	Energy:  -11322.1281228
N         25.96400       11.41600       74.58100
C         26.26000       12.61000       73.79900
C         25.62100       12.49100       72.41600
O         25.49900       11.39300       71.87500
C         27.78600       12.82100       73.69500
C         28.53700       11.66500       73.01100
C         30.05400       11.74200       73.19200
O         30.75800       11.66700       72.16200
O         30.49500       11.81100       74.36000
H         25.67200       10.59800       74.06300
H         26.04700       11.40600       75.58700
H         25.82700       13.47400       74.30500
H         25.27500       13.37900       71.90800
H         28.17800       12.94900       74.70400
H         27.98200       13.74100       73.14500
H         28.29700       11.66700       71.94800
H         28.21200       10.72000       73.43800
H         31.45200       11.80300       74.43300
N         26.14900       12.54000       68.63400
C         27.25800       12.25400       67.72100
C         27.00200       12.75700       66.29800
O         27.95800       12.88700       65.53500
C         27.69600       10.77600       67.79100
C         26.57900        9.76100       67.46800
C         28.29600       10.52000       69.18000
C         26.98400        8.30200       67.73500
H         25.29600       12.00800       68.52000
H         26.23300       13.24400       69.35300
H         28.11600       12.83200       68.05900
H         26.00000       12.99200       65.97000
H         28.49400       10.63600       67.06000
H         26.30800        9.86200       66.41700
H         25.70200        9.98100       68.07300
H         27.51300       10.53600       69.93800
H         29.04400       11.27700       69.41400
H         28.78800        9.55100       69.19300
H         27.90100        8.07100       67.20000
H         26.20000        7.62000       67.41700
H         27.14200        8.14100       68.80000
N         23.69500       14.98900       63.56800
C         22.35800       15.22000       63.03200
C         22.26300       14.55700       61.64900
O         23.10400       13.73300       61.28100
C         22.08500       16.73400       62.98800
C         22.17300       17.39500       64.37200
C         21.94000       18.90400       64.30400
O         22.65500       19.56600       63.52200
O         21.06100       19.37500       65.05800
H         24.45300       15.47600       63.11300
H         23.85400       14.37400       64.35300
H         21.60800       14.76400       63.67900
H         21.07900       16.90400       62.59900
H         22.80300       17.19900       62.31100
H         23.15800       17.22300       64.80800
H         21.42600       16.94100       65.02500
H         20.95200       20.32800       65.00800
N         21.22700       14.90100       60.88000
C         21.03500       14.39200       59.53300
C         19.67100       14.75100       58.96300
O         18.85200       15.40200       59.61300
H         20.56000       15.57900       61.22100
H         21.12200       13.30900       59.54000
H         21.81300       14.79200       58.88400
H         19.41400       14.42700       57.96600
N         17.31900       12.34800       57.99600
C         16.35500       11.47000       58.64700
C         16.15600       11.84000       60.11100
O         15.01900       12.04300       60.54100
C         16.79800       10.00600       58.51700
C         16.49700        9.40700       57.16000
C         15.16800        9.39300       56.69500
C         17.52800        8.87500       56.36100
C         14.86600        8.87800       55.42500
C         17.22900        8.34200       55.09400
C         15.89800        8.35000       54.61700
O         15.60900        7.85200       53.38200
H         18.21000       11.95800       57.72400
H         17.10200       13.31900       57.82100
H         15.39200       11.59300       58.15400
H         17.00800       11.92400       60.76900
H         16.27300        9.41000       59.26500
H         17.86600        9.93500       58.72900
H         14.37300        9.79200       57.30900
H         18.55200        8.87700       56.70700
H         13.84600        8.89000       55.07000
H         18.01900        7.93300       54.48000
H         14.67600        7.90800       53.17000
N         21.49700       11.27400       65.75200
C         22.23100       10.12000       66.25200
C         22.88900       10.49200       67.57900
O         23.52400       11.54100       67.68800
C         23.25000        9.61400       65.21300
C         23.83800        8.27000       65.66600
C         22.61600        9.40500       63.83200
H         22.03900       12.06500       65.43400
H         20.48700       11.28400       65.72500
H         21.52900        9.30700       66.43400
H         22.79600        9.83100       68.42700
H         24.05500       10.34400       65.11400
H         23.05300        7.51700       65.73800
H         24.29500        8.38000       66.64400
H         24.60000        7.93600       64.96000
H         21.81400        8.66900       63.89600
H         23.38100        9.05700       63.14300
H         22.21800       10.34200       63.44400
N         25.39200        8.71100       70.84100
C         25.97500        7.65200       71.64900
C         25.06200        7.47600       72.86000
O         24.66600        8.46000       73.48400
C         27.40200        8.02300       72.05600
C         28.12900        6.85100       72.72800
C         29.57800        7.23100       73.05300
C         30.38300        5.98000       73.41400
N         31.78600        6.31100       73.71600
H         25.67300        9.66000       71.04700
H         24.73300        8.50600       70.10400
H         26.00500        6.73200       71.06400
H         24.76300        6.48500       73.16900
H         27.36400        8.86700       72.74000
H         27.95600        8.31700       71.16500
H         28.12000        5.99600       72.05100
H         27.61700        6.57200       73.65000
H         29.59100        7.93800       73.88500
H         30.03400        7.70300       72.18400
H         30.35700        5.29000       72.56900
H         29.93100        5.49900       74.28100
H         31.82600        6.94800       74.50100
H         32.21100        6.76500       72.91700
N         24.90900        3.20900       69.17200
C         24.46100        4.41900       68.50000
C         22.93900        4.35000       68.34400
O         22.41700        3.40000       67.76900
C         25.17900        4.57500       67.16300
H         24.78800        2.33600       68.67600
H         25.32200        3.23900       70.09400
H         24.72300        5.28500       69.10200
H         22.32200        5.14200       68.74100
H         24.96700        3.71500       66.53300
H         26.25200        4.64400       67.33400
H         24.83600        5.48100       66.66400
N         19.80800        6.13100       66.78300
C         19.26400        7.05200       65.79500
C         17.78100        7.25800       66.07400
O         17.01000        6.30500       66.05900
C         19.52100        6.52700       64.37900
C         18.92500        7.45800       63.31300
C         19.19100        6.92000       61.90700
C         18.91700        8.00300       60.86500
N         18.97300        7.46100       59.49700
H         19.72700        5.14000       66.59600
H         20.25100        6.46900       67.62500
H         19.77900        8.00600       65.88600
H         17.40700        8.24900       66.28700
H         19.08200        5.53900       64.28000
H         20.59800        6.44700       64.22600
H         19.36500        8.45000       63.41800
H         17.84400        7.53500       63.44500
H         18.54800        6.05900       61.72800
H         20.22700        6.60300       61.82500
H         19.66700        8.78900       60.97300
H         17.92900        8.42700       61.04200
H         18.28900        6.72700       59.38000
H         19.89200        7.07100       59.31700
N         27.23500       -2.05900       59.50200
C         26.94000       -1.69400       60.88900
C         25.71600       -2.49000       61.34300
O         24.70200       -2.53600       60.64700
C         26.73500       -0.17100       61.06300
C         25.44600        0.35700       60.41400
C         26.69000        0.19500       62.55100
H         27.18100       -1.33200       58.80200
H         27.48400       -3.00600       59.25200
H         27.80000       -1.98600       61.49300
H         25.74200       -3.01600       62.28600
H         27.58800        0.34300       60.61700
H         24.56700       -0.04300       60.91400
H         25.41000        0.06300       59.36900
H         25.40800        1.44100       60.49600
H         25.85800       -0.31300       63.03800
H         26.56000        1.27000       62.66400
H         27.62300       -0.09300       63.03100
N         21.99800        0.74300       66.83600
C         23.11900        0.18000       66.09000
C         24.26700       -0.18600       67.02900
O         24.42400        0.42400       68.08700
C         23.58900        1.16900       65.01400
C         22.57400        1.44700       63.92500
C         22.37300        0.50500       62.89900
C         21.83900        2.64800       63.92900
C         21.43300        0.76100       61.88800
C         20.90000        2.90100       62.91400
C         20.69200        1.95400       61.89700
H         22.14400        1.63800       67.27800
H         21.11500        0.25800       66.90600
H         22.79300       -0.72700       65.58700
H         24.48600        0.77100       64.54200
H         23.86400        2.10800       65.48900
H         22.93700       -0.41600       62.88700
H         21.99400        3.37800       64.71000
H         21.26900        0.03600       61.10800
H         20.34400        3.82500       62.91200
H         19.97400        2.14800       61.11300
N         25.13900       -1.10100       66.58300
C         26.45100       -1.28000       67.19600
C         27.20000        0.05500       67.09100
O         27.10300        0.73300       66.06900
C         27.22600       -2.46300       66.56300
C         28.02900       -2.06600       65.31500
C         28.87000       -3.17600       64.68500
O         29.95200       -3.48300       65.23200
O         28.48100       -3.64300       63.59600
H         24.95000       -1.58500       65.71700
H         26.29200       -1.51300       68.24900
H         26.52600       -3.25700       66.30700
H         27.92300       -2.85000       67.30600
H         28.72700       -1.28600       65.60000
H         27.33700       -1.67200       64.57400
H         29.08000       -4.27300       63.18700
N         27.94800        0.42400       68.13000
C         28.72800        1.65000       68.16800
C         30.10500        1.41700       67.54200
O         30.78500        0.45100       67.88900
C         28.85300        2.11700       69.62000
C         29.57700        3.43700       69.75900
C         30.95300        3.45600       70.04700
C         28.88500        4.64600       69.55400
C         31.62800        4.68200       70.13400
C         29.57000        5.87000       69.63400
C         30.94300        5.88700       69.92300
H         28.00900       -0.19100       68.92800
H         28.20300        2.42700       67.61000
H         29.38100        1.35400       70.19400
H         27.85800        2.22300       70.04700
H         31.49600        2.53100       70.18600
H         27.83000        4.63600       69.32700
H         32.67900        4.70200       70.35000
H         29.04200        6.79600       69.47400
H         31.47600        6.82300       69.98000
N         30.54500        2.35200       66.69000
C         31.92600        2.44600       66.22800
C         32.46400        3.83300       66.56100
O         31.72400        4.81400       66.52400
C         32.07300        2.14200       64.72900
C         31.94600        0.64700       64.37300
C         30.48300        0.24900       64.15000
C         32.73600        0.31800       63.10000
H         29.92500        3.10900       66.43300
H         32.52700        1.72600       66.77800
H         33.06500        2.48000       64.42600
H         31.33900        2.72500       64.17400
H         32.36000        0.04700       65.18500
H         30.05600        0.81700       63.32500
H         29.90400        0.45100       65.04500
H         30.42200       -0.81600       63.93100
H         32.32900        0.86300       62.25100
H         32.68300       -0.75000       62.89900
H         33.78100        0.59000       63.23100
N         33.75600        3.91500       66.89600
C         34.32700        5.12300       67.48600
C         34.68100        6.19900       66.45900
O         34.84600        7.35300       66.84600
C         35.55100        4.77600       68.34000
C         35.22700        4.04700       69.61800
C         34.94100        2.72100       69.71600
N         35.16200        4.61400       70.89300
N         34.68100        2.45700       71.03200
C         34.82500        3.60500       71.71400
H         34.33500        3.08800       66.83900
H         33.57800        5.55900       68.14700
H         36.02500        5.71000       68.62500
H         36.26100        4.19200       67.75200
H         34.92200        2.01900       68.91400
H         34.42800        1.55600       71.41500
H         34.68100        3.70200       72.77800
N         34.79900        5.86300       65.17100
C         35.23600        6.81200       64.15800
C         34.50400        6.57500       62.83500
O         34.02600        5.47400       62.57700
C         36.77400        6.72800       64.06100
C         37.44900        7.65700       63.04200
C         37.26200        9.14100       63.35900
O         36.15800        9.61500       63.60200
N         38.34800        9.90000       63.37400
H         34.63300        4.90900       64.88000
H         34.96300        7.80900       64.49300
H         37.04900        5.70300       63.82800
H         37.19800        6.95400       65.04100
H         37.07500        7.44700       62.04400
H         38.51600        7.42900       63.03200
H         38.28200       10.87800       63.61800
H         39.25200        9.48300       63.19800
N         34.41300        7.62500       62.01100
C         33.97100        7.54600       60.62200
C         35.09400        7.95500       59.66300
O         36.06200        8.60900       60.05800
C         32.68700        8.35700       60.41000
C         32.88300        9.84700       60.64900
O         33.49400       10.49500       59.77700
O         32.40900       10.33300       61.69700
H         34.78700        8.51400       62.31500
H         33.73400        6.51100       60.39900
H         35.03600        7.66600       58.62400
H         31.91800        7.99400       61.09000
H         32.33800        8.20400       59.38800
H         32.54400       11.27700       61.80500
N         36.12500       11.88300       59.12900
C         37.01700       12.41300       60.15700
C         38.40100       11.75900       60.10900
O         39.38600       12.43400       60.39400
C         36.40200       12.20100       61.54100
C         35.05800       12.90700       61.73600
C         34.55800       12.73500       63.17700
C         33.24700       13.48700       63.42600
N         32.17900       13.04900       62.51200
H         35.34600       11.30900       59.42600
H         36.28000       12.08500       58.15100
H         37.14100       13.48400       59.99200
H         38.50900       10.72100       59.83000
H         37.10100       12.57400       62.28800
H         36.26400       11.13400       61.68600
H         34.33200       12.48000       61.05100
H         35.16600       13.96700       61.51400
H         35.31100       13.12200       63.86400
H         34.40600       11.67500       63.38500
H         33.42100       14.55600       63.28900
H         32.93100       13.30900       64.45400
H         31.32100       13.54500       62.69800
H         32.46400       13.22100       61.55700
N         31.18300       10.05900       55.56500
C         30.55100       10.27500       56.86600
C         29.82800        9.02400       57.39200
O         29.80700        8.81300       58.60300
C         29.52000       11.41600       56.81200
C         29.79600       12.58600       55.85100
C         28.72600       13.68500       55.91300
N         27.58900       13.45200       56.56700
O         28.91700       14.75800       55.35200
H         30.86000       10.61500       54.78700
H         31.91800        9.37600       55.44900
H         31.33500       10.54500       57.57500
H         29.42700       11.81500       57.82400
H         28.55700       10.98600       56.53100
H         29.82600       12.21100       54.82800
H         30.76300       13.02700       56.09400
H         26.88000       14.17000       56.61000
H         27.44000       12.56600       57.03100
N         29.22100        8.22500       56.49800
C         28.48100        7.01200       56.85100
C         29.26200        5.71700       56.58500
O         28.66900        4.64400       56.49900
C         27.05700        7.04100       56.27600
C         26.94300        7.04600       54.75300
O         27.74600        6.46300       54.03100
N         25.90600        7.71000       54.25300
H         29.28000        8.45600       55.51500
H         28.34600        7.02700       57.93100
H         30.33600        5.74900       56.47400
H         26.54600        7.91900       56.67000
H         26.52200        6.17500       56.65300
H         25.77200        7.73600       53.25100
H         25.24800        8.16400       54.86600
N         32.03400        3.66400       58.73900
C         32.47900        3.64500       60.12700
C         33.64800        2.68700       60.29300
O         33.62800        1.60100       59.72300
C         31.32400        3.25200       61.05200
C         30.05500        4.10800       60.91300
C         28.98800        3.54600       61.85000
C         30.32700        5.57700       61.25500
H         31.48700        2.87700       58.41900
H         32.26300        4.43100       58.12400
H         32.81400        4.63800       60.41500
H         34.49100        2.96200       60.90900
H         31.68700        3.33200       62.07500
H         31.06400        2.21200       60.85600
H         29.67500        4.04600       59.89300
H         29.33400        3.61600       62.88100
H         28.79200        2.50100       61.61100
H         28.06700        4.11200       61.72700
H         30.75300        5.65900       62.25600
H         29.40200        6.14900       61.20800
H         31.02200        5.99200       60.52800
N         27.08400        2.18800       56.86000
C         26.03800        2.66300       57.76400
C         25.06900        3.59100       57.04000
O         25.38300        4.10700       55.97300
C         26.66200        3.37400       58.97200
H         27.51800        2.88200       56.26700
H         27.36000        1.21600       56.83100
H         25.45900        1.81500       58.11900
H         27.18400        4.27600       58.65300
H         27.35900        2.70600       59.47600
H         25.87600        3.65900       59.67200
N         23.91900        3.85700       57.66600
C         22.89100        4.76500       57.17000
C         22.33400        4.33600       55.80800
O         22.34100        5.11500       54.85500
C         23.40400        6.21900       57.20400
C         22.27900        7.25400       57.23700
O         21.27500        6.99500       57.93600
O         22.45400        8.31800       56.60300
H         23.73700        3.41000       58.55400
H         22.07100        4.68300       57.88100
H         21.93300        3.34100       55.68300
H         24.02600        6.40000       56.32600
H         24.02500        6.36100       58.08700
H         21.74400        8.95900       56.68300
O         31.06500        9.45000       70.38900
H         30.90200       10.28500       70.84200
H         31.33400        8.85700       71.09200
O         21.59900       11.25000       60.77000
H         22.24600       11.96100       60.75300
H         20.89400       11.59600       61.31900
O         33.18300        8.06700       71.86700
H         33.79200        7.85200       71.15300
H         33.17700        9.02600       71.88100
O         20.23100        4.73200       59.79200
H         20.99500        4.37700       60.25400
H         20.59400        5.07400       58.97200
O         34.72500        8.08800       69.52700
H         34.82400        7.97300       68.58000
H         35.42600        8.70500       69.76300
O         35.40600       11.27600       66.11300
H         35.80100       10.76600       65.40500
H         34.61100       10.78700       66.34000
O         25.63100       11.33900       57.54200
H         24.78900       10.90300       57.39800
H         25.53200       11.76900       58.39300
O         36.82400        9.92500       70.02200
H         37.44100        9.85500       69.29400
H         37.38400        9.86900       70.80500
O         29.32900        9.83400       62.63800
H         28.90500        9.12800       63.13000
H         29.63100        9.41500       61.83100
O         22.85000        3.55600       60.44600
H         23.56200        3.86500       61.01500
H         22.55600        2.74400       60.86200
C         31.88600        9.43700       67.12600
C         31.08800        8.13600       67.03500
C         30.50500        8.03400       65.62200
N         29.76900        6.78400       65.51300
C         28.58400        6.66900       64.83300
O         28.11500        7.68200       64.30600
C         27.95000        5.36600       64.76900
N         28.34700        4.29600       65.44300
N         27.48600        3.32100       65.07100
C         26.54800        3.73800       64.19300
C         26.84000        5.03700       63.98400
N         26.19500        5.95000       63.09500
C         25.28000        5.64500       62.12200
O         24.83800        4.50700       62.03500
C         24.88200        6.73300       61.24800
C         25.79100        7.38400       60.40800
F         27.08200        6.96400       60.36600
C         25.42700        8.45500       59.59700
C         24.10400        8.89600       59.60900
C         23.16400        8.26200       60.42100
C         23.56600        7.19700       61.21900
F         22.64700        6.60600       62.02400
C         31.62500        8.03600       64.57500
N         32.95700        9.47200       66.10800
C         32.43500        9.32700       64.73100
H         32.32300        9.52000       68.12200
H         31.20700       10.27600       66.96800
H         30.28500        8.15000       67.77000
H         31.74900        7.29400       67.24200
H         29.86100        8.89900       65.45600
H         30.19400        5.92700       65.90800
H         27.55200        2.35500       65.43600
H         25.79600        3.10000       63.80800
H         26.51300        6.93100       63.13000
H         26.14700        8.92500       58.97800
H         23.80900        9.71000       58.99800
H         22.15700        8.59200       60.43200
H         31.20000        7.99600       63.57200
H         32.27400        7.17200       64.71800
H         33.59600        8.71000       66.29100
H         31.78900       10.17500       64.50000
H         33.26600        9.31900       64.02300
