361
2vtr_active_dlpno-mp2_tzvp_rijcosx_tpno.out	Energy:   -8706.1582052
N         26.42500       12.46300       67.86900
C         27.49800       11.94100       67.00400
C         27.20900       12.11600       65.51300
O         27.94100       11.58900       64.67500
C         27.80000       10.45600       67.30500
C         26.51400        9.60700       67.29300
C         28.62200       10.35300       68.59200
C         26.75200        8.11000       67.49600
H         25.50600       12.05900       67.74800
H         26.59900       13.18900       68.54900
H         28.39900       12.51800       67.19700
H         28.44100       10.06800       66.51600
H         26.01100        9.74200       66.33600
H         25.84800        9.96500       68.07200
H         28.02400       10.65800       69.44700
H         29.50100       10.99300       68.50900
H         28.97200        9.33200       68.72500
H         27.41900        7.73000       66.72800
H         25.80800        7.57200       67.45700
H         27.19000        7.93800       68.47100
N         26.12700       12.80700       65.16800
C         25.69800       12.91000       63.79500
C         24.38200       13.65000       63.70700
O         23.55500       13.61100       64.61900
H         25.56300       13.25800       65.87400
H         25.57000       11.91100       63.37600
H         26.45900       13.43700       63.21900
H         24.16300       14.22900       62.82200
N         21.62200       11.47200       65.29400
C         22.30900       10.26300       65.72500
C         22.97200       10.57600       67.06500
O         23.71700       11.54900       67.17700
C         23.32000        9.75200       64.67700
C         23.75100        8.32000       65.03700
C         22.73800        9.73800       63.25700
H         22.20000       12.26900       65.05900
H         20.61500       11.51300       65.23100
H         21.57200        9.47500       65.87000
H         22.78600        9.94000       67.91800
H         24.19900       10.39700       64.68000
H         22.89400        7.64600       65.00400
H         24.17600        8.29300       66.03700
H         24.50300        7.97200       64.33100
H         21.85200        9.10700       63.22900
H         23.47500        9.34300       62.55800
H         22.47700       10.74800       62.94300
N         25.31000        8.75700       70.31700
C         25.91700        7.67500       71.07000
C         25.04200        7.49000       72.30300
O         24.65300        8.47300       72.92800
C         27.36600        8.02800       71.41600
C         28.10900        6.86100       72.07600
C         29.59000        7.22100       72.23500
C         30.41100        6.00000       72.65200
N         31.80400        6.38900       72.93500
H         25.61800        9.69700       70.52100
H         24.60500        8.57600       69.61700
H         25.91100        6.76700       70.46500
H         24.76500        6.49700       72.62700
H         27.38100        8.89600       72.07100
H         27.89000        8.28900       70.50000
H         28.01300        5.97100       71.45200
H         27.67900        6.65600       73.05700
H         29.68900        8.00700       72.98400
H         29.98000        7.59500       71.28700
H         30.39600        5.26700       71.84200
H         29.96900        5.55100       73.54200
H         31.82300        7.07400       73.67700
H         32.20800        6.81200       72.10800
N         24.79500        3.23800       68.55900
C         24.36900        4.43000       67.83700
C         22.83900        4.42600       67.71600
O         22.26400        3.48500       67.17900
C         25.04900        4.46500       66.46800
H         24.70900        2.35700       68.07200
H         25.15900        3.29100       69.50000
H         24.68400        5.32000       68.38200
H         22.26600        5.25400       68.10700
H         24.80200        3.56500       65.91100
H         26.12900        4.51400       66.59700
H         24.71000        5.33900       65.91100
N         27.20000       -2.01300       58.98500
C         26.95200       -1.65000       60.38200
C         25.69500       -2.37800       60.84000
O         24.66100       -2.29700       60.18000
C         26.77300       -0.13500       60.56200
C         26.45400        0.21400       62.02500
C         28.04000        0.61600       60.16200
H         27.17900       -1.27700       58.29200
H         27.38500       -2.97100       58.72100
H         27.80400       -1.97000       60.98300
H         25.71200       -2.96600       61.74600
H         25.95300        0.20700       59.93300
H         27.26300       -0.12600       62.66600
H         25.52500       -0.25600       62.34300
H         26.35000        1.28900       62.14200
H         28.87300        0.32400       60.79800
H         27.83400        1.66700       60.27800
H         28.30000        0.43500       59.12400
N         21.86000        0.82000       66.27600
C         22.94700        0.27800       65.48100
C         24.14300       -0.05400       66.37000
O         24.34200        0.55500       67.42000
C         23.31400        1.26400       64.36500
C         22.26800        1.40700       63.27700
C         22.19100        0.45100       62.24700
C         21.40600        2.52100       63.25900
C         21.25400        0.60500       61.21100
C         20.49200        2.68500       62.20500
C         20.40700        1.72300       61.18600
H         22.02400        1.70400       66.73600
H         20.97900        0.33400       66.36600
H         22.61900       -0.64400       65.00700
H         24.24200        0.93700       63.89800
H         23.50000        2.24400       64.79800
H         22.86200       -0.39500       62.24100
H         21.46000        3.26400       64.04200
H         21.19200       -0.12500       60.42200
H         19.85600        3.55500       62.17300
H         19.69600        1.84300       60.38200
N         24.98600       -0.97200       65.88700
C         26.34800       -1.16000       66.36900
C         27.05000        0.19800       66.28200
O         26.87900        0.89500       65.28900
C         27.04300       -2.27100       65.54200
C         28.41700       -1.89700       64.96400
C         29.06600       -3.00700       64.14100
O         30.21200       -3.37700       64.47000
O         28.45000       -3.44300       63.14700
H         24.73600       -1.44800       65.03200
H         26.30700       -1.47300       67.41100
H         26.40200       -2.54600       64.70600
H         27.16000       -3.15000       66.17700
H         29.08500       -1.60300       65.77300
H         28.28600       -1.05000       64.30100
H         28.92200       -4.10100       62.63300
N         27.82000        0.56500       67.30800
C         28.58300        1.80500       67.35300
C         29.96800        1.59800       66.74300
O         30.62500        0.59700       67.03200
C         28.71400        2.26500       68.80700
C         29.48300        3.56100       68.96200
C         30.85400        3.53500       69.27900
C         28.84200        4.79200       68.73300
C         31.57400        4.73600       69.36700
C         29.57200        5.98900       68.82100
C         30.93600        5.96200       69.14200
H         27.91900       -0.06600       68.09100
H         28.05100        2.57700       66.79500
H         29.22500        1.48100       69.36600
H         27.72200        2.39300       69.23600
H         31.36100        2.59400       69.43600
H         27.79300        4.82100       68.47700
H         32.62200        4.72300       69.59000
H         29.09200        6.93200       68.63300
H         31.49600        6.88200       69.20900
N         30.45500        2.59800       65.99900
C         31.84200        2.68300       65.54900
C         32.40900        4.05400       65.89300
O         31.67300        5.03400       65.91900
C         31.95900        2.39500       64.04900
C         31.72800        0.90700       63.72300
C         30.26900        0.64300       63.34200
C         32.65400        0.42800       62.60000
H         29.85700        3.38800       65.79000
H         32.44000        1.94800       66.08700
H         32.96100        2.68300       63.72700
H         31.23900        3.01700       63.51800
H         31.96500        0.31000       64.60000
H         29.99300        1.24800       62.48200
H         29.60800        0.89800       64.16800
H         30.14000       -0.41300       63.10800
H         32.42600        0.95300       61.67500
H         32.52100       -0.64300       62.45400
H         33.69200        0.61100       62.87700
N         33.71200        4.10800       66.18700
C         34.33800        5.25600       66.84100
C         34.77100        6.37200       65.88400
O         35.03800        7.48000       66.34600
C         35.52700        4.77500       67.68300
C         35.14000        4.11100       68.98300
N         35.13900        4.74200       70.23100
C         34.71100        2.82500       69.14800
C         34.72100        3.81100       71.10400
N         34.46600        2.64900       70.48300
H         34.26900        3.27100       66.07800
H         33.60600        5.69800       67.51700
H         36.13200        5.64200       67.93900
H         36.15200        4.10400       67.09100
H         34.56400        2.08500       68.39200
H         34.15500        1.79100       70.91700
H         34.59100        3.97700       72.16200
N         34.85500        6.11900       64.57500
C         35.26800        7.13400       63.61300
C         34.63100        6.87000       62.25100
O         34.29700        5.73100       61.93600
C         36.80800        7.16900       63.57100
C         37.35800        8.30200       62.69400
C         38.78400        8.72500       63.05200
N         39.23300        9.83900       62.48500
O         39.48000        8.08500       63.83400
H         34.63400        5.19600       64.22500
H         34.91400        8.10700       63.95800
H         37.19400        6.21500       63.21500
H         37.16500        7.31800       64.59100
H         36.71200        9.17600       62.78900
H         37.34600        7.97700       61.65500
H         40.15000       10.17500       62.73100
H         38.64000       10.35800       61.85500
N         34.48100        7.92600       61.44400
C         34.07200        7.83500       60.04700
C         35.23100        8.18600       59.10300
O         36.23200        8.78200       59.51200
C         32.79800        8.66300       59.80600
C         33.01400       10.16100       59.93600
O         33.80400       10.67200       59.12300
O         32.40100       10.78400       60.83000
H         34.73600        8.84100       61.78500
H         33.81400        6.80100       59.83700
H         35.17000        7.90700       58.06200
H         32.03600        8.37300       60.52500
H         32.42700        8.44900       58.80200
H         32.57800       11.72700       60.86100
N         36.47200       12.11200       58.44900
C         37.43400       12.68100       59.38500
C         38.73300       11.91000       59.40300
O         39.73600       12.46200       59.84100
C         36.95700       12.75600       60.83500
C         35.49700       12.40900       61.10300
C         34.87900       13.42700       62.04800
C         34.21800       14.54000       61.22000
N         35.17300       15.34100       60.41900
H         35.73600       11.51500       58.80900
H         36.53600       12.31100       57.46100
H         37.62900       13.69800       59.05400
H         38.77700       10.89500       59.03700
H         37.18200       13.76500       61.17400
H         37.56000       12.09400       61.45900
H         35.44700       11.40100       61.51900
H         34.90500       12.44400       60.20000
H         35.63000       13.83300       62.72800
H         34.11400       12.91900       62.63200
H         33.67800       15.19500       61.90000
H         33.50300       14.07000       60.54000
H         35.66600       14.74900       59.76200
H         35.85000       15.78400       61.02400
N         31.06000       10.18000       55.23100
C         30.42900       10.36900       56.53400
C         29.69500        9.12500       57.04900
O         29.64000        8.93400       58.26200
C         29.42300       11.52800       56.47500
C         30.03000       12.86200       56.01900
C         29.75800       13.14000       54.54200
O         30.51200       12.72300       53.66800
N         28.65200       13.81900       54.25000
H         30.70800       10.72700       54.45800
H         31.82100        9.52800       55.10700
H         31.20900       10.62000       57.25500
H         29.23500        8.43100       56.36000
H         29.01700       11.66500       57.47700
H         28.59300       11.25900       55.81800
H         31.10300       12.87100       56.20600
H         29.58300       13.66200       56.61100
H         28.44400       14.03800       53.28900
H         28.04200       14.13000       54.99200
N         32.18100        3.85700       58.21400
C         32.60000        3.86500       59.60500
C         33.69500        2.83900       59.83600
O         33.59300        1.71000       59.37200
C         31.39300        3.61400       60.51300
C         30.25800        4.64000       60.34500
C         29.09400        4.27200       61.24700
C         30.69300        6.04800       60.73400
H         31.62200        3.07200       57.91100
H         32.43500        4.60100       57.58000
H         33.01300        4.83800       59.85300
H         34.56900        3.10600       60.41300
H         31.74800        3.65100       61.53900
H         31.00300        2.61300       60.31600
H         29.91000        4.64400       59.31200
H         29.40900        4.33500       62.28300
H         28.79300        3.25600       61.05200
H         28.25600        4.94300       61.05400
H         31.03600        6.06600       61.77000
H         29.86400        6.74600       60.61300
H         31.49700        6.34800       60.07500
N         27.27500        2.35800       56.81200
C         26.15800        2.77000       57.65600
C         25.03300        3.32100       56.78700
O         25.31100        3.83000       55.70900
C         26.62000        3.83200       58.65200
H         27.80500        3.10200       56.38000
H         27.50500        1.38500       56.66700
H         25.79400        1.91100       58.21600
H         26.89200        4.74600       58.13000
H         27.49000        3.47300       59.18700
H         25.81700        4.04800       59.35700
N         23.79400        3.31000       57.29000
C         22.58100        3.75700       56.60100
C         22.20900        2.92700       55.36000
O         21.47900        3.41700       54.50400
C         22.60300        5.27300       56.30500
C         22.74400        6.17000       57.53700
O         22.46600        5.69800       58.66300
O         23.12000        7.34500       57.33400
H         23.66400        2.90500       58.20700
H         21.77600        3.59300       57.31600
H         22.58800        1.92200       55.24200
H         21.67500        5.54900       55.80500
H         23.41700        5.48900       55.61200
H         23.18800        7.89100       58.12100
O         32.51800       11.83900       67.87600
H         32.27700       12.15600       68.74700
H         33.34000       11.36700       68.01400
O         32.94300        8.34200       71.08800
H         33.65600        8.38800       70.44300
H         32.58600        9.23200       71.10900
O         34.83000        7.96000       69.04900
H         34.96500        8.01500       68.09700
H         34.88400        7.02200       69.24000
O         29.87900       10.60400       62.26900
H         30.72900       10.74200       61.84200
H         29.65600       11.45300       62.64900
O         25.44300       10.91000       56.85800
H         25.61400       11.34700       57.69300
H         25.17100       10.02400       57.10700
O         23.13200        6.26800       61.51800
H         22.96700        6.25300       60.57100
H         23.18300        5.34200       61.75900
O         23.80000        1.75300       59.83500
H         23.95900        2.42100       60.50700
H         23.05100        1.25800       60.16800
O         25.33800        7.01900       59.52400
H         24.58200        6.83200       58.96300
H         24.98900        6.96000       60.41500
C         31.48000        8.21100       66.54000
C         30.65000        8.26200       65.25800
C         31.54600        8.22500       64.01500
N         29.74900        7.10400       65.22300
C         28.65000        7.07500       64.36700
C         28.13100        8.15300       63.69200
C         27.01100        7.99800       62.83100
Cl        26.40800        9.37700       61.97600
N         26.40700        6.85400       62.66000
C         26.91100        5.76000       63.34300
C         26.55800        4.44500       63.36000
C         25.44600        3.87600       62.66300
N         24.55100        3.43800       62.10600
C         27.48800        3.80300       64.16400
N         28.36300        4.62100       64.68800
N         28.01100        5.84100       64.17200
H         32.10900        9.09900       66.59900
H         32.12300        7.33700       66.55200
H         30.81700        8.19300       67.40200
H         30.09400        9.19800       65.26600
H         32.20900        9.09000       64.02500
H         30.93400        8.27000       63.11500
H         32.13700        7.31100       63.99700
H         30.13300        6.19900       65.54800
H         28.55300        9.11200       63.80000
H         27.51800        2.76900       64.32800
