484
2vts_active_dlpno-mp2_tzvp_rijcosx_tpno.out	Energy:  -11044.6691667
N         26.39800       12.25800       69.22100
C         27.50600       11.86800       68.33100
C         27.28600       12.25100       66.86400
O         28.08600       11.86300       66.01200
C         27.90400       10.38300       68.48400
C         26.86600        9.40700       67.88700
C         28.23300       10.10500       69.94500
C         27.12600        7.92600       68.18300
H         25.52600       11.75500       69.12000
H         26.50400       12.99500       69.90300
H         28.37900       12.44000       68.64400
H         28.83600       10.23300       67.93800
H         26.87000        9.52400       66.80300
H         25.87800        9.66400       68.25900
H         27.32300       10.09600       70.54100
H         28.90300       10.87100       70.32900
H         28.75100        9.15400       70.00100
H         28.14800        7.67600       67.91300
H         26.44800        7.30000       67.60500
H         26.97100        7.71700       69.23900
N         26.23900       13.02400       66.56000
C         26.05100       13.59300       65.23700
C         24.60000       13.93800       64.94100
O         23.67700       13.35600       65.50400
H         25.59000       13.29100       67.28700
H         26.39300       12.89000       64.47600
H         26.65500       14.49800       65.16100
N         24.42900       14.85900       63.99400
C         23.16700       15.14700       63.32800
C         23.08500       14.24000       62.09100
O         24.09100       14.03200       61.40700
C         23.10000       16.62900       62.90700
C         23.57800       17.67200       63.93900
C         22.53800       18.01400       65.01000
O         22.22000       17.12800       65.83300
O         22.08000       19.17700       65.02000
H         25.24900       15.30800       63.61200
H         22.33800       14.93300       64.00400
H         22.07700       16.86600       62.61800
H         23.72000       16.74900       62.01900
H         23.82400       18.58300       63.39000
H         24.49800       17.34600       64.42300
H         21.44800       19.35900       65.71900
N         21.89300       13.71900       61.79300
C         21.63000       12.90800       60.60800
C         20.54100       13.50500       59.72400
O         19.87200       14.46600       60.10500
H         21.11100       13.89700       62.40900
H         21.32400       11.90900       60.91900
H         22.53000       12.81600       60.00500
N         20.32700       12.87600       58.56000
C         19.23800       13.23100       57.64800
C         17.89000       13.05800       58.35100
O         17.05100       13.95700       58.31500
C         19.28200       12.34600       56.38400
O         20.49500       12.54000       55.68900
C         18.12300       12.65800       55.42700
H         20.92700       12.10600       58.29800
H         19.35100       14.27500       57.35400
H         17.67400       12.14300       58.88200
H         19.21600       11.29800       56.67900
H         18.14700       13.71100       55.14700
H         17.16800       12.43700       55.90500
H         18.20400       12.03900       54.53400
H         20.50300       11.95700       54.92500
N         21.71200       11.44300       66.37400
C         22.39700       10.23200       66.79100
C         23.05300       10.50300       68.13700
O         23.75600       11.49900       68.30400
C         23.42600        9.78200       65.73500
C         23.96200        8.38400       66.09000
C         22.80800        9.80200       64.32700
H         22.29300       12.25400       66.20500
H         20.71000       11.47400       66.25800
H         21.66400        9.43500       66.90900
H         22.90100        9.81400       68.95500
H         24.27000       10.47400       65.73600
H         23.15900        7.66800       66.20800
H         24.47700        8.41200       67.04300
H         24.65700        8.04000       65.32600
H         21.87600        9.24100       64.31000
H         23.50500        9.38100       63.61000
H         22.59900       10.82800       64.02400
N         25.42500        8.53700       71.28800
C         26.01500        7.45100       72.04400
C         25.12600        7.24800       73.26200
O         24.68400        8.21500       73.88700
C         27.45800        7.78200       72.40800
C         28.22500        6.63000       73.06100
C         29.69200        7.04600       73.23400
C         30.52700        5.84100       73.65900
N         31.94200        6.21100       73.83000
H         25.71900        9.47600       71.51900
H         24.74800        8.36300       70.55900
H         26.02300        6.55800       71.42300
H         24.87900        6.24700       73.58200
H         27.47600        8.66600       73.03900
H         27.97700        8.00000       71.49000
H         28.16500        5.75200       72.42000
H         27.79000        6.37500       74.02400
H         29.77500        7.83900       73.97800
H         30.07600        7.42700       72.28800
H         30.44800        5.07400       72.88700
H         30.13800        5.45000       74.59800
H         32.02600        6.92400       74.54300
H         32.30200        6.59000       72.96200
N         25.02200        3.21100       69.35600
C         24.53000        4.38300       68.65800
C         23.00100        4.28800       68.56800
O         22.46500        3.30000       68.07800
C         25.19700        4.44500       67.28700
H         24.85700        2.32100       68.90400
H         25.50100        3.27900       70.24300
H         24.81200        5.28000       69.20600
H         22.39200        5.09900       68.93900
H         24.96900        3.54000       66.72800
H         26.27600        4.52000       67.41900
H         24.83700        5.31500       66.73900
N         19.75400        6.18900       67.10800
C         19.25000        7.15000       66.12900
C         17.76500        7.37700       66.35300
O         16.98300        6.43200       66.31200
C         19.55300        6.71300       64.68300
C         21.04900        6.42800       64.53200
C         21.59400        6.42300       63.10100
C         23.12300        6.41000       63.20900
N         23.78200        6.21600       61.90900
H         19.62700        5.20500       66.90800
H         20.21300        6.49500       67.95400
H         19.76000        8.10100       66.28600
H         17.39600        8.37300       66.54900
H         19.27200        7.53100       64.01700
H         18.97900        5.82500       64.42000
H         21.28700        5.47800       65.00900
H         21.55700        7.21300       65.06900
H         21.27300        7.32200       62.57200
H         21.24200        5.54000       62.57000
H         23.42500        5.60900       63.88400
H         23.45300        7.35700       63.63100
H         24.78100        6.24900       62.05600
H         23.50300        6.94000       61.26000
N         27.40200       -2.00000       59.71500
C         27.12400       -1.66300       61.10900
C         25.87500       -2.43400       61.53300
O         24.85000       -2.35800       60.86400
C         26.92300       -0.14600       61.27000
C         26.60300        0.22700       62.72300
C         28.18700        0.61700       60.87200
H         27.41000       -1.24600       59.04100
H         27.58200       -2.95300       59.43400
H         27.97000       -1.97300       61.72300
H         25.89400       -3.04700       62.42200
H         26.09800        0.18000       60.63500
H         27.44400       -0.03000       63.36200
H         25.71400       -0.30100       63.06300
H         26.42400        1.29600       62.80500
H         29.02300        0.32400       61.50500
H         27.99100        1.67300       60.99500
H         28.44600        0.43900       59.83200
N         22.05100        0.71500       66.94800
C         23.14500        0.13900       66.17900
C         24.33000       -0.17400       67.09100
O         24.48100        0.45200       68.14100
C         23.56000        1.10500       65.06400
C         22.51300        1.34100       63.99500
C         22.35900        0.42200       62.94100
C         21.70500        2.49200       64.04000
C         21.38800        0.64800       61.95200
C         20.75600        2.72700       63.03100
C         20.59300        1.80300       61.98800
H         22.22800        1.60200       67.39500
H         21.15900        0.24900       67.03100
H         22.80600       -0.78800       65.72500
H         24.45500        0.71600       64.58300
H         23.83000        2.06200       65.50800
H         22.98000       -0.45900       62.88900
H         21.81700        3.20000       64.84700
H         21.22800       -0.07600       61.17100
H         20.14100        3.61200       63.05900
H         19.84900        1.96900       61.22400
N         25.22700       -1.07100       66.65000
C         26.54100       -1.20500       67.27300
C         27.25700        0.14700       67.20900
O         27.08200        0.89100       66.24500
C         27.39100       -2.32800       66.64600
C         27.85800       -2.03700       65.21500
C         28.88100       -3.04700       64.69900
O         30.04400       -3.01000       65.15400
O         28.50600       -3.85300       63.82500
H         25.04900       -1.57400       65.79100
H         26.37900       -1.46300       68.31900
H         26.82200       -3.25700       66.65100
H         28.27600       -2.46700       67.26800
H         28.32500       -1.06000       65.17200
H         26.98500       -2.01900       64.57100
H         29.18200       -4.45900       63.51500
N         28.05900        0.45600       68.22800
C         28.83100        1.68600       68.29300
C         30.20700        1.47600       67.66000
O         30.87900        0.48500       67.95200
C         28.95800        2.12500       69.75200
C         29.67100        3.44700       69.91900
C         28.98700        4.64900       69.66400
C         31.02500        3.47600       70.30100
C         29.65600        5.87600       69.80400
C         31.68400        4.70800       70.43700
C         31.00500        5.90600       70.18200
H         28.16800       -0.20700       68.98300
H         28.30100        2.47100       67.75100
H         29.48700        1.35200       70.31200
H         27.96600        2.22200       70.18100
H         27.95100        4.63400       69.35800
H         31.56100        2.55500       70.48100
H         29.13800        6.80000       69.63000
H         32.71300        4.74200       70.73600
H         31.51600        6.85100       70.28400
N         30.65100        2.45100       66.85800
C         32.02400        2.55400       66.37300
C         32.56400        3.93600       66.72400
O         31.79900        4.89200       66.80300
C         32.14000        2.28300       64.86500
C         31.95100        0.80300       64.47200
C         30.47200        0.45800       64.26300
C         32.71500        0.47900       63.18100
H         30.04200        3.23400       66.65900
H         32.63300        1.82400       66.90000
H         33.14000        2.59100       64.55800
H         31.42200        2.90700       64.33400
H         32.35900        0.16800       65.25900
H         30.03300        1.10900       63.50800
H         29.92300        0.57900       65.19100
H         30.37700       -0.58000       63.94900
H         32.31100        1.05200       62.34900
H         32.62500       -0.58300       62.96200
H         33.77100        0.71600       63.30400
N         33.87600        4.03300       66.96600
C         34.46200        5.18900       67.64100
C         34.91500        6.31400       66.69900
O         35.14800        7.42600       67.17100
C         35.61800        4.73300       68.53600
C         35.21700        3.99900       69.79000
C         34.82800        2.69700       69.85900
N         35.23800        4.53100       71.08200
N         34.59100        2.41800       71.17900
C         34.84500        3.53100       71.88700
H         34.46500        3.22600       66.81100
H         33.70300        5.61900       68.29600
H         36.12600        5.62400       68.87100
H         36.32000        4.12900       67.95900
H         34.73500        2.01400       69.04100
H         34.28300        1.52900       71.54700
H         34.73400        3.61200       72.95700
N         35.03900        6.06400       65.38900
C         35.39300        7.09900       64.42100
C         34.70900        6.84200       63.07700
O         34.39800        5.69900       62.75100
C         36.92700        7.17700       64.30500
C         37.38700        8.48500       63.65000
C         38.89000        8.75000       63.72100
O         39.46000        9.36500       62.83000
N         39.55000        8.35100       64.80100
H         34.85700        5.13400       65.03700
H         35.02800        8.05700       64.79500
H         37.30800        6.33400       63.73900
H         37.34100        7.12900       65.31200
H         36.86600        9.29100       64.14400
H         37.10000        8.48000       62.60500
H         40.54400        8.50900       64.85200
H         39.07000        7.82300       65.51300
N         34.51100        7.91100       62.29400
C         34.10800        7.83600       60.89400
C         35.27500        8.16300       59.95600
O         36.27700        8.75600       60.35900
C         32.86000        8.69600       60.63400
C         33.06600       10.18800       60.86900
O         33.89200       10.77600       60.14600
O         32.38100       10.73900       61.76000
H         34.75500        8.82500       62.64500
H         33.82800        6.80900       60.68200
H         35.21800        7.86800       58.91900
H         32.06300        8.36400       61.29600
H         32.53100        8.53900       59.60500
H         33.98200       11.71600       60.31400
N         36.39500       12.10900       59.55600
C         37.30800       12.55100       60.60700
C         38.69900       11.93800       60.41600
O         39.68800       12.63000       60.63600
C         36.71500       12.20000       61.98400
C         37.72700       12.44400       63.11700
C         37.13900       12.23900       64.51600
C         38.25200       12.41000       65.55400
N         37.75300       12.25000       66.93300
H         35.56300       11.60400       59.83000
H         36.59000       12.30200       58.58400
H         37.40900       13.63600       60.53700
H         38.80700       10.91300       60.09300
H         36.41200       11.15200       61.99500
H         35.83300       12.82000       62.15200
H         38.10500       13.46400       63.04400
H         38.56500       11.75900       63.00000
H         36.71800       11.24700       64.60400
H         36.34300       12.96100       64.68900
H         38.67900       13.40700       65.43700
H         39.03500       11.67300       65.36500
H         37.38700       11.31700       67.06400
H         37.02100       12.92200       67.11100
N         28.91000        7.92000       51.49700
C         29.79300        9.06300       51.70000
C         30.72000        8.76800       52.89200
O         30.40600        7.88200       53.68800
C         28.96900       10.35000       51.86700
C         27.95100       10.33300       53.01500
C         27.12400       11.62600       52.98900
C         25.73900       11.45600       53.61400
N         25.81300       11.01700       55.01400
H         28.80300        7.29400       52.28300
H         28.43300        7.76400       50.62100
H         30.39800        9.19200       50.80600
H         31.63200        9.33000       53.02800
H         28.42700       10.51200       50.93400
H         29.64200       11.19500       52.00000
H         28.46600       10.24200       53.97100
H         27.28300        9.48400       52.88600
H         26.97000       11.91900       51.95400
H         27.66400       12.42500       53.49700
H         25.18500       10.71600       53.03500
H         25.20800       12.40700       53.56000
H         24.87900       10.89800       55.38400
H         26.29600       10.13200       55.07100
N         31.08300       10.12800       55.70900
C         30.36100       10.30200       56.96600
C         29.52100        9.06200       57.33100
O         29.23000        8.85100       58.50500
C         29.46200       11.55000       56.87200
C         30.21700       12.87700       56.64500
C         30.70800       13.12300       55.21100
O         30.23900       12.51900       54.25100
N         31.65700       14.03900       55.04700
H         30.74900       10.65100       54.91200
H         31.88100        9.51200       55.64000
H         31.09000       10.46100       57.76300
H         28.92300       11.63800       57.81600
H         28.71900       11.41100       56.08600
H         31.06500       12.92300       57.33100
H         29.54600       13.69700       56.90300
H         31.98700       14.24800       54.11400
H         32.02700       14.53300       55.84400
N         29.17200        8.23100       56.33700
C         28.45100        6.96300       56.48400
C         29.38000        5.74800       56.59700
O         28.90200        4.61700       56.59000
C         27.49100        6.78600       55.29500
C         26.29300        7.71800       55.34900
O         26.04400        8.38700       56.33800
N         25.54500        7.81000       54.26400
H         29.47000        8.46800       55.40200
H         27.87100        6.99700       57.40700
H         30.44800        5.88700       56.68100
H         27.10600        5.76700       55.27900
H         28.03100        6.94500       54.36200
H         24.72700        8.40200       54.27000
H         25.80300        7.31600       53.42100
N         32.32500        3.93500       58.91300
C         32.74300        3.90600       60.31000
C         33.84000        2.87000       60.50600
O         33.74800        1.76600       59.98100
C         31.54900        3.61300       61.23000
C         30.37100        4.59900       61.13400
C         29.30200        4.20700       62.15000
C         30.78400        6.03800       61.43000
H         31.93100        3.08400       58.53700
H         32.42400        4.76600       58.34800
H         33.15400        4.87300       60.58400
H         34.70200        3.10700       61.11200
H         31.92000        3.61900       62.25400
H         31.17600        2.61300       61.00500
H         29.93900        4.55300       60.13400
H         29.70200        4.31300       63.15700
H         29.01300        3.17400       62.00800
H         28.43000        4.84600       62.02300
H         31.25500        6.10600       62.41200
H         29.91500        6.69600       61.39600
H         31.48200        6.35900       60.66700
N         27.33400        2.33600       57.37600
C         26.27400        2.79900       58.26400
C         25.14900        3.42900       57.43900
O         25.41600        3.95700       56.36400
C         26.84000        3.81200       59.25900
H         27.82400        3.05400       56.86200
H         27.56300        1.35700       57.28100
H         25.88800        1.95500       58.83000
H         27.14500        4.71600       58.73400
H         27.70500        3.39300       59.76300
H         26.07700        4.06300       59.99700
N         23.91900        3.44200       57.96800
C         22.69800        3.91100       57.30400
C         22.32200        3.12300       56.03500
O         21.58700        3.62900       55.19000
C         22.71400        5.44400       57.10800
C         22.55600        6.24200       58.40700
O         22.53800        5.62600       59.49500
O         22.43100        7.48000       58.30000
H         23.79700        3.03000       58.88300
H         21.89200        3.70100       58.00600
H         22.70400        2.12400       55.88800
H         21.88700        5.73000       56.45900
H         23.63500        5.74500       56.60900
H         22.45400        7.89200       57.43400
O         32.21500       11.55200       69.08100
H         31.65100       11.45100       68.31400
H         31.89800       12.34800       69.50800
O         31.26900        9.64000       71.09500
H         31.56600       10.38400       70.57100
H         31.10300       10.00900       71.96300
O         30.87500       11.87100       66.48300
H         31.12800       12.76400       66.24900
H         29.92600       11.85000       66.36100
O         33.42700        7.89400       72.04400
H         34.06500        7.84300       71.33200
H         33.15200        8.81100       72.05500
O         33.20800       13.67200       63.69800
H         32.59600       14.37300       63.47400
H         32.94700       12.93800       63.14100
O         35.23200        8.22000       69.91600
H         35.20100        7.98600       68.98900
H         36.07000        8.67000       70.02200
O         22.92600        9.45200       54.89900
H         22.26000        8.76500       54.90700
H         22.91100        9.79200       54.00400
O         24.03200        2.03800       60.56000
H         24.08900        2.51400       61.38900
H         23.57000        1.22900       60.77900
O         29.26400       11.31000       63.12800
H         30.17700       11.25300       62.84700
H         29.31100       11.60700       64.03700
O         25.75500       12.44800       57.58400
H         25.15200       11.75800       57.87100
H         26.18000       12.17600       56.76800
C         31.70100        8.14800       67.52400
C         30.99400        8.21900       66.17000
C         31.97100        8.05500       65.00200
N         30.03600        7.12000       66.11000
C         28.93300        7.14000       65.26500
C         28.44000        8.23100       64.59300
C         27.28100        8.09600       63.78000
N         26.82100        9.21100       63.10300
C         25.88300        9.09700       61.99100
C         25.42500       10.51400       61.63600
C         24.47500       10.46000       60.43900
C         25.16200        9.81200       59.23400
N         24.25200        9.82900       58.07900
C         25.63800        8.39300       59.57400
C         26.56800        8.40900       60.79400
N         26.63200        6.96500       63.64000
C         27.14200        5.85900       64.28800
C         26.78100        4.54400       64.29700
C         25.67800        3.97100       63.59000
N         24.79100        3.53300       63.02000
C         27.70300        3.88900       65.09900
N         28.59600        4.69600       65.60700
N         28.25800        5.92200       65.09200
H         32.42700        8.95700       67.60100
H         32.22300        7.20200       67.63700
H         30.96900        8.25200       68.32400
H         30.50700        9.18900       66.09800
H         32.73000        8.83500       65.05100
H         31.43700        8.14700       64.05600
H         32.44700        7.07700       65.04500
H         30.35700        6.19800       66.45400
H         28.90700        9.17600       64.67100
H         27.44500       10.03400       63.09700
H         25.01000        8.51300       62.27200
H         26.28800       11.13100       61.38200
H         24.91000       10.96300       62.48600
H         24.18500       11.47400       60.17600
H         23.58100        9.88900       60.70100
H         26.04700       10.39800       58.98900
H         23.43600        9.26200       58.28300
H         24.71600        9.40700       57.28600
H         26.19000        7.97500       58.73700
H         24.77700        7.75600       59.77000
H         26.82400        7.37800       61.03900
H         27.48600        8.94100       60.54200
H         27.70800        2.85300       65.28000
