464
2vtt_active_dlpno-mp2_tzvp_rijcosx_tpno.out	Energy:  -10885.2688236
N         26.43000       12.40800       68.16500
C         27.52500       11.96300       67.29700
C         27.17300       12.10200       65.82000
O         27.94000       11.68300       64.95900
C         27.92400       10.51000       67.61900
C         26.80200        9.50900       67.25200
C         28.35500       10.41500       69.08500
C         27.15300        8.05200       67.55500
H         25.56100       11.89500       68.10700
H         26.54000       13.19200       68.79300
H         28.39300       12.59700       67.47500
H         28.80000       10.26900       67.01500
H         26.59500        9.57500       66.18400
H         25.89100        9.76500       67.78900
H         27.49700       10.53600       69.74400
H         29.09200       11.18600       69.30800
H         28.81500        9.44600       69.25400
H         28.10000        7.79900       67.08500
H         26.37300        7.39700       67.17100
H         27.23200        7.90100       68.62800
N         25.98100       12.60100       65.51300
C         25.49600       12.62200       64.16000
C         24.22500       13.43100       64.09900
O         23.37700       13.38600       64.98900
H         25.36300       12.92500       66.24400
H         25.30200       11.60600       63.81500
H         26.25000       13.07200       63.51200
N         24.11000       14.16100       63.00400
C         22.87800       14.78200       62.58800
C         22.71700       14.53000       61.09600
O         23.56000       13.90300       60.44500
C         22.87900       16.27400       62.96700
C         23.68400       17.18400       62.01900
C         23.36400       18.66800       62.22500
O         23.41500       19.40400       61.21500
O         23.06800       19.05000       63.38000
H         24.86900       14.16500       62.33700
H         22.04100       14.30800       63.10200
H         21.84100       14.90900       60.59100
H         23.27300       16.38100       63.98000
H         21.84200       16.61000       62.97900
H         23.45000       16.94600       60.98200
H         24.75000       17.01000       62.16600
H         22.87000       19.98600       63.45900
N         21.59700       11.18400       65.51700
C         22.29900       10.02900       66.06200
C         22.99300       10.43900       67.36200
O         23.69100       11.45200       67.40100
C         23.30400        9.45700       65.03900
C         23.74500        8.04500       65.45400
C         22.73500        9.39600       63.61300
H         22.16400       11.96900       65.22900
H         20.59000       11.19900       65.43200
H         21.57300        9.25000       66.28400
H         22.87000        9.83700       68.25000
H         24.18400       10.09800       65.01800
H         22.88700        7.37200       65.47300
H         24.19900        8.07000       66.44300
H         24.48200        7.66500       64.74500
H         21.84600        8.76500       63.58900
H         23.49300        8.99400       62.94500
H         22.48200       10.39400       63.25600
N         25.55000        8.70800       70.60300
C         26.12600        7.67500       71.44900
C         25.21700        7.53300       72.66900
O         24.82500        8.53600       73.26600
C         27.55400        8.06300       71.84300
C         28.30000        6.90600       72.51400
C         29.76600        7.28200       72.75000
C         30.54200        6.04300       73.19800
N         31.93900        6.37300       73.51400
H         25.87000        9.65500       70.75100
H         24.85900        8.48800       69.89900
H         26.15600        6.73900       70.89000
H         24.91800        6.55200       73.00800
H         27.52900        8.92600       72.50900
H         28.09700        8.33200       70.94400
H         28.25300        6.03100       71.86400
H         27.83100        6.66500       73.46800
H         29.82600        8.05800       73.51500
H         30.20500        7.66100       71.82700
H         30.52200        5.30600       72.39300
H         30.06400        5.61900       74.08100
H         31.97300        7.06300       74.25300
H         32.38000        6.76500       72.69200
N         25.06200        3.23000       69.07900
C         24.56400        4.40300       68.37500
C         23.03700        4.30500       68.27200
O         22.51200        3.26000       67.90400
C         25.23300        4.50100       67.00700
H         24.99600        2.34500       68.59500
H         25.45500        3.29800       70.00700
H         24.83400        5.29800       68.92900
H         22.42300        5.15700       68.52400
H         25.01900        3.60400       66.43200
H         26.31000        4.59700       67.13500
H         24.85600        5.37100       66.47000
N         19.88700        6.12800       66.48600
C         19.29700        7.03800       65.50700
C         17.82000        7.24100       65.84200
O         17.04800        6.29100       65.80600
C         19.49500        6.51700       64.07200
C         18.96200        7.52100       63.03100
C         19.37700        7.17000       61.59700
C         18.99400        8.31000       60.64700
N         19.62500        8.18000       59.32000
H         19.83400        5.13600       66.29500
H         20.33200        6.47700       67.32300
H         19.81600        7.99100       65.57600
H         17.45700        8.22200       66.11100
H         18.97000        5.57100       63.95200
H         20.55900        6.34900       63.90400
H         19.34800        8.51300       63.27200
H         17.87400        7.55000       63.07800
H         18.91300        6.23400       61.28800
H         20.45500        7.05900       61.57000
H         19.34000        9.23900       61.09800
H         17.91100        8.35000       60.53100
H         19.07800        7.51700       58.78900
H         20.57700        7.85100       59.40700
N         27.32100       -2.03700       59.35500
C         27.03700       -1.68800       60.74100
C         25.80300       -2.46000       61.18300
O         24.78700       -2.53700       60.49400
C         26.86400       -0.17700       60.98300
C         25.53900        0.37100       60.43700
C         26.91800        0.10500       62.49100
H         27.29600       -1.30300       58.66300
H         27.53600       -2.98900       59.09400
H         27.89400       -2.02300       61.32900
H         25.82000       -2.95900       62.14000
H         27.69300        0.34900       60.51000
H         24.69200       -0.06100       60.96800
H         25.44800        0.12200       59.38300
H         25.49800        1.44800       60.57400
H         26.12100       -0.42900       63.01100
H         26.80300        1.17000       62.67600
H         27.88000       -0.21600       62.88200
N         22.11700        0.71300       66.74900
C         23.23400        0.12800       66.01600
C         24.38600       -0.21300       66.96000
O         24.53600        0.40800       68.01400
C         23.70000        1.07400       64.90000
C         22.66300        1.35500       63.83300
C         22.42800        0.41000       62.81700
C         21.94000        2.56300       63.84600
C         21.46500        0.66500       61.82700
C         20.98100        2.81800       62.85100
C         20.73000        1.86200       61.85200
H         22.27600        1.60700       67.18900
H         21.22500        0.24500       66.81300
H         22.90100       -0.79300       65.54700
H         24.57300        0.63900       64.41500
H         24.01400        2.01600       65.34200
H         22.98500       -0.51500       62.79700
H         22.12000        3.29600       64.61900
H         21.27800       -0.06300       61.05300
H         20.44000        3.75200       62.85200
H         19.98600        2.05400       61.09300
N         25.26700       -1.12400       66.52300
C         26.58000       -1.29200       67.13400
C         27.30800        0.05300       67.02600
O         27.19600        0.72900       66.00400
C         27.36100       -2.46800       66.49500
C         28.35900       -2.02500       65.41300
C         29.10300       -3.14700       64.69200
O         30.05000       -3.70000       65.29100
O         28.78500       -3.38300       63.50500
H         25.08500       -1.60700       65.65400
H         26.42800       -1.52500       68.18700
H         26.65400       -3.18000       66.07200
H         27.92000       -2.97500       67.28200
H         29.11300       -1.39500       65.88400
H         27.81800       -1.44000       64.67500
H         29.33000       -4.03800       63.06300
N         28.05700        0.43100       68.06000
C         28.82600        1.66100       68.07200
C         30.20800        1.41800       67.46000
O         30.90800        0.48900       67.86500
C         28.92500        2.18000       69.50700
C         29.64500        3.50400       69.59700
C         30.99600        3.54500       69.98500
C         28.98000        4.69200       69.23800
C         31.67500        4.77100       70.00700
C         29.66900        5.91500       69.26300
C         31.01800        5.95400       69.64200
H         28.13300       -0.17800       68.86200
H         28.30000        2.41500       67.48600
H         29.44200        1.44100       70.12000
H         27.92300        2.30500       69.91000
H         31.51600        2.63500       70.24800
H         27.94500        4.66500       68.93100
H         32.70700        4.81100       70.29500
H         29.17100        6.82700       68.98700
H         31.55200        6.89100       69.65000
N         30.62500        2.30400       66.54700
C         32.00700        2.41300       66.08900
C         32.52500        3.81000       66.42300
O         31.76600        4.77700       66.39100
C         32.15500        2.11100       64.58900
C         32.03900        0.61800       64.22100
C         30.58000        0.21600       63.97500
C         32.85000        0.29500       62.95700
H         29.98700        3.02700       66.24200
H         32.61700        1.69900       66.63600
H         33.14400        2.45900       64.28800
H         31.41600        2.69100       64.04000
H         32.44300        0.01700       65.03500
H         30.16300        0.79400       63.15100
H         29.98700        0.40000       64.86600
H         30.52600       -0.84400       63.73600
H         32.46600        0.85400       62.10800
H         32.79100       -0.77000       62.73800
H         33.89500        0.55600       63.11100
N         33.81900        3.90900       66.74900
C         34.40200        5.11900       67.32900
C         34.81700        6.17400       66.30200
O         35.02100        7.32400       66.68300
C         35.61200        4.74900       68.19500
C         35.26200        4.14300       69.53000
N         35.23200        4.83800       70.74000
C         34.91600        2.84500       69.76200
C         34.85800        3.93700       71.66200
N         34.66000        2.73300       71.10300
H         34.40000        3.08400       66.69100
H         33.65500        5.58500       67.97200
H         36.15800        5.66500       68.40300
H         36.27500        4.08200       67.64200
H         34.84700        2.06000       69.04100
H         34.37100        1.89200       71.58200
H         34.71600        4.15700       72.70800
N         34.97600        5.81300       65.02700
C         35.46700        6.73500       64.01200
C         34.69800        6.54200       62.70200
O         34.12300        5.48200       62.46700
C         36.99500        6.57000       63.91900
C         37.73000        7.43800       62.88600
C         37.67500        8.93300       63.17100
O         36.61000        9.49700       63.37800
N         38.83000        9.59400       63.18300
H         34.80400        4.85600       64.75000
H         35.27700        7.75000       64.33900
H         37.21200        5.52800       63.71800
H         37.42900        6.78900       64.89600
H         37.33800        7.25000       61.88900
H         38.77700        7.14200       62.89800
H         38.83300       10.58500       63.36900
H         39.69800        9.10000       63.03300
N         34.68300        7.58100       61.86000
C         34.20400        7.51600       60.48100
C         35.31400        7.92400       59.50500
O         36.29100        8.56900       59.89300
C         32.92800        8.35000       60.30000
C         33.19200        9.84800       60.40300
O         33.57300       10.44400       59.37700
O         33.00900       10.40300       61.50200
H         35.13100        8.44100       62.14500
H         33.94500        6.48400       60.26200
H         35.23900        7.64400       58.46500
H         32.19000        8.05400       61.04600
H         32.50800        8.13900       59.31500
H         33.69600        9.95900       58.55800
N         36.27100       11.86200       59.03200
C         37.14700       12.38500       60.07500
C         38.53200       11.74800       60.01200
O         39.51800       12.43300       60.26500
C         36.53200       12.15200       61.45400
C         35.20500       12.89200       61.62200
C         34.79500       12.95800       63.09800
C         33.44600       13.64700       63.30700
N         32.40600       13.06300       62.44700
H         35.47100       11.30400       59.30400
H         36.45800       12.05400       58.05800
H         37.26000       13.45900       59.92400
H         38.64400       10.70600       59.74800
H         37.23500       12.49300       62.21500
H         36.35900       11.08600       61.57700
H         34.45300       12.36000       61.04700
H         35.28100       13.90100       61.22400
H         35.55200       13.51600       63.65200
H         34.73700       11.94700       63.49900
H         33.54400       14.71000       63.08500
H         33.15100       13.52700       64.35100
H         32.33700       12.06800       62.62700
H         32.66100       13.18400       61.47500
N         31.38000        9.95600       55.62100
C         30.81800       10.15400       56.95800
C         29.89600        9.02500       57.43100
O         29.71400        8.89200       58.64000
C         30.12500       11.51900       57.06900
C         28.98200       11.76600       56.07400
C         28.67300       13.25600       55.98500
O         29.37900       13.99200       55.30900
N         27.66200       13.73500       56.69800
H         31.05500       10.55900       54.87800
H         32.07100        9.24000       55.44600
H         31.66000       10.17600       57.64900
H         30.88400       12.29000       56.93600
H         29.71700       11.62200       58.07500
H         28.09500       11.21000       56.37200
H         29.26400       11.42100       55.08800
H         27.48800       14.72800       56.70400
H         27.08600       13.10500       57.23800
N         29.36300        8.19500       56.52100
C         28.62100        6.98300       56.87400
C         29.41400        5.69100       56.62200
O         28.83500        4.60700       56.59800
C         27.21200        7.00600       56.27000
C         27.14500        6.92300       54.74600
O         27.88600        6.19900       54.08700
N         26.21200        7.66900       54.17100
H         29.54600        8.35600       55.53900
H         28.46500        7.00100       57.95100
H         30.48200        5.73600       56.46500
H         26.71300        7.91700       56.60000
H         26.64700        6.17600       56.68500
H         26.09000        7.63200       53.16900
H         25.61900        8.25600       54.73700
N         32.14300        3.64400       58.65600
C         32.58000        3.62100       60.04800
C         33.76000        2.67500       60.21300
O         33.75400        1.59400       59.63600
C         31.42500        3.20800       60.96600
C         30.13300        4.02600       60.81500
C         29.06800        3.44500       61.74600
C         30.36600        5.50600       61.14000
H         31.55900        2.88200       58.34000
H         32.41400        4.39200       58.03300
H         32.90000        4.61700       60.34200
H         31.78100        3.30800       61.98900
H         31.19200        2.15900       60.77900
H         29.76300        3.93900       59.79300
H         29.39600        3.53700       62.78000
H         28.90200        2.39100       61.52100
H         28.13100        3.98200       61.60500
H         30.77200        5.61000       62.14700
H         29.42700        6.05300       61.07200
H         31.06400        5.93600       60.42300
N         34.73400        3.05100       61.04500
C         35.96500        2.29700       61.25200
C         36.19200        2.02600       62.74000
O         35.75700        2.79200       63.60400
C         37.18300        2.98700       60.59200
C         37.57300        4.29400       61.29800
C         36.96900        3.18000       59.08400
C         38.88900        4.89200       60.79000
H         34.63200        3.91700       61.55500
H         35.85100        1.32900       60.77100
H         36.74200        1.14600       63.04000
H         38.02800        2.31300       60.70600
H         37.72600        4.06400       62.34800
H         36.76800        5.02400       61.20000
H         36.13700        3.85800       58.89100
H         36.76600        2.21000       58.63900
H         37.86600        3.58200       58.61500
H         39.68000        4.14700       60.85300
H         39.18000        5.72800       61.41300
H         38.77900        5.25200       59.77000
N         27.20800        2.11200       56.75200
C         26.18600        2.59200       57.67400
C         25.23100        3.54800       56.98100
O         25.53600        4.09700       55.92700
C         26.83600        3.24600       58.89700
H         27.65800        2.80200       56.16600
H         27.45600        1.13400       56.70100
H         25.58900        1.74900       58.01400
H         27.37000        4.14900       58.60700
H         27.52800        2.54600       59.36300
H         26.06500        3.52000       59.61600
N         24.07700        3.75700       57.61500
C         22.99100        4.58500       57.12400
C         22.52100        4.15400       55.73800
O         22.52900        4.95800       54.80400
C         23.35900        6.07500       57.20000
C         22.12100        6.97800       57.21000
O         21.04400        6.50000       57.62700
O         22.26300        8.16600       56.85700
H         23.90700        3.25900       58.47800
H         22.16600        4.40000       57.81000
H         22.18200        3.14200       55.57500
H         23.99200        6.33700       56.35000
H         23.93300        6.25100       58.10600
H         21.47300        8.70700       56.92600
O         31.33100        9.51400       70.01100
H         31.40000       10.25800       69.40900
H         31.19300        9.92500       70.87000
O         32.66600       11.88900       68.98700
H         32.46200       12.30300       69.82900
H         33.42800       11.34000       69.17800
O         21.83900       11.39800       60.47400
H         22.57000       12.01000       60.35300
H         21.16400       11.92400       60.90600
O         33.40000        7.81600       71.55000
H         34.00400        7.77500       70.80400
H         33.30300        8.75800       71.71500
O         34.91900        8.29400       69.25800
H         34.83200        7.92800       68.37300
H         35.82500        8.59700       69.29900
O         36.43400       11.40000       65.42100
H         36.40700       10.77000       64.69400
H         37.32700       11.33600       65.75500
O         31.87200       12.93600       59.57600
H         30.98900       12.57100       59.64700
H         32.44400       12.16200       59.57900
O         25.65700       11.34900       57.55800
H         25.29700       10.57600       57.11600
H         25.05100       11.51200       58.28200
O         22.90300        3.31200       60.28800
H         23.64300        3.57300       60.84400
H         22.62600        2.46800       60.65000
O         20.27000        4.62800       59.66200
H         21.14700        4.34700       59.93500
H         20.42400        5.11900       58.84900
O         24.27300        9.49600       55.56900
H         23.68400        8.96600       56.11900
H         23.87800        9.43800       54.69700
O         30.58200       11.93300       64.42300
H         29.64000       11.75800       64.35300
H         30.97600       11.05500       64.48700
O         27.89600       10.06400       62.56800
H         27.87000       10.70800       63.27900
H         28.08200        9.23400       63.01400
C         33.00700        9.65300       65.13300
C         32.31100        9.39600       66.47400
C         31.54500        8.06700       66.44200
C         30.56400        8.08200       65.26500
N         29.87900        6.80000       65.19800
C         28.64200        6.65400       64.62700
O         28.09300        7.65500       64.16100
C         28.04400        5.33400       64.60500
N         28.48900        4.28900       65.28700
N         27.64500        3.28500       64.96200
C         26.66900        3.66000       64.10500
C         26.92200        4.96000       63.86000
N         26.23200        5.83700       62.96900
C         25.32100        5.49000       62.00700
O         24.90700        4.33800       61.93300
C         24.88300        6.55800       61.12900
C         25.75800        7.23300       60.27100
F         27.06100        6.85600       60.21700
C         25.34700        8.28400       59.45600
C         24.01100        8.68500       59.48800
C         23.10700        8.03200       60.32600
C         23.55500        6.98200       61.12100
F         22.67700        6.36200       61.95000
C         31.31800        8.30100       63.94900
N         32.06200        9.57200       64.00200
H         33.78200        8.90800       64.99100
H         33.47200       10.63900       65.14800
H         31.61400       10.21000       66.67700
H         33.05900        9.36700       67.26600
H         31.00300        7.93300       67.37600
H         32.25700        7.25500       66.31500
H         29.86100        8.90300       65.40800
H         30.37000        5.95900       65.54500
H         27.75100        2.32800       65.34200
H         25.92200        2.99600       63.75600
H         26.51800        6.82900       62.98700
H         26.04000        8.77000       58.82000
H         23.68100        9.48100       58.87100
H         22.09700        8.34100       60.36000
H         30.60600        8.34000       63.12300
H         32.01400        7.47800       63.77500
H         32.55500        9.71600       63.12900
