428
2vu3_active_dlpno-mp2_tzvp_rijcosx_tpno.out	Energy:  -10691.2123981
N         25.79700       12.57000       68.77100
C         26.85000       12.31400       67.79300
C         26.73900       13.32100       66.64500
O         27.75200       13.85200       66.19100
C         26.72900       10.85600       67.29200
C         27.33600        9.88400       68.32100
C         27.39900       10.66700       65.92300
C         26.99900        8.41900       68.01700
H         24.93900       12.04600       68.67100
H         25.92100       13.24200       69.51500
H         27.82300       12.44600       68.26700
H         25.77100       13.56500       66.23300
H         25.67200       10.61800       67.17100
H         26.95100       10.12600       69.31000
H         28.42000       10.00700       68.34400
H         28.45500       10.93500       65.98000
H         26.90900       11.28300       65.17300
H         27.29300        9.64000       65.59000
H         25.92600        8.29500       67.92100
H         27.31800        7.79600       68.84100
H         27.49300        8.08600       67.10600
N         21.23400       14.38400       60.79900
C         21.00200       14.32600       59.36900
C         19.69000       15.02000       59.01000
O         19.09100       15.72300       59.82500
H         20.52000       13.97200       61.38200
H         22.06100       14.81200       61.18900
H         20.94900       13.28200       59.06200
H         21.82100       14.80100       58.83100
H         19.27900       14.89200       58.01900
N         21.35000       11.34600       65.71200
C         22.12500       10.20700       66.18300
C         22.71600       10.56300       67.54600
O         23.25300       11.65600       67.72000
C         23.18700        9.79200       65.14500
C         23.86300        8.48000       65.56700
C         22.56700        9.57500       63.75600
H         21.86100       12.15800       65.39600
H         20.34000       11.32400       65.70100
H         21.45700        9.35700       66.30600
H         22.66200        9.85400       68.35900
H         23.94300       10.57500       65.07000
H         23.12500        7.67900       65.64100
H         24.33400        8.60900       66.53500
H         24.62900        8.20200       64.84300
H         21.79300        8.80900       63.80700
H         23.34200        9.26600       63.05700
H         22.13100       10.50200       63.38400
N         25.19600        8.76500       70.84500
C         25.80300        7.71300       71.64600
C         24.89200        7.51200       72.85600
O         24.48600        8.48600       73.49000
C         27.23000        8.09800       72.05300
C         28.00900        6.90700       72.63200
C         29.47700        7.27500       72.88900
C         30.25500        6.03700       73.34600
N         31.69400        6.32100       73.49900
H         25.46300        9.71700       71.05300
H         24.53500        8.55200       70.11200
H         25.84500        6.80000       71.05100
H         24.60500        6.51500       73.15600
H         27.17800        8.88800       72.79800
H         27.76000        8.47700       71.17900
H         27.96900        6.07900       71.92300
H         27.55000        6.58600       73.56800
H         29.53300        8.05100       73.65400
H         29.91900        7.65500       71.96900
H         30.12800        5.24600       72.60500
H         29.85200        5.69700       74.30100
H         31.82500        7.05000       74.18900
H         32.07900        6.64100       72.61900
N         24.93600        3.34100       69.01300
C         24.44200        4.52500       68.33300
C         22.92600        4.39200       68.16800
O         22.43700        3.35800       67.72300
C         25.16300        4.69900       67.00200
H         24.86600        2.46300       68.51700
H         25.33200        3.39200       69.94100
H         24.66200        5.40400       68.93500
H         22.28200        5.21300       68.44500
H         24.97800        3.83100       66.37200
H         26.23300        4.79900       67.18100
H         24.79700        5.59500       66.50100
N         19.59000        6.15700       66.52800
C         19.04300        7.09000       65.55100
C         17.56600        7.29200       65.83500
O         16.79000        6.35000       65.74200
C         19.27200        6.57700       64.13100
C         18.75400        7.56200       63.07100
C         18.91100        6.94900       61.68100
C         18.67400        7.98200       60.58400
N         18.82900        7.37300       59.25100
H         19.41200        5.17100       66.38800
H         20.12800        6.48300       67.31800
H         19.56200        8.04200       65.64000
H         17.19900        8.26700       66.11900
H         18.76800        5.62100       64.01000
H         20.34100        6.42800       63.99300
H         19.32000        8.49200       63.13500
H         17.69700        7.77700       63.23400
H         18.20700        6.12400       61.57000
H         19.92000        6.56500       61.57700
H         19.40300        8.78700       60.69400
H         17.66800        8.39100       60.68700
H         18.16100        6.62100       59.13400
H         19.76000        6.98700       59.14900
N         27.26900       -2.02000       59.38900
C         27.04000       -1.68900       60.79400
C         25.82100       -2.47200       61.28500
O         24.78000       -2.47000       60.62900
C         26.89900       -0.16400       60.99300
C         25.59000        0.42700       60.44200
C         27.00700        0.18100       62.48200
H         27.18400       -1.28000       58.70800
H         27.50400       -2.96100       59.10800
H         27.91700       -2.02000       61.35200
H         25.87500       -3.02800       62.20900
H         27.73300        0.32000       60.48100
H         24.73100        0.04300       60.98800
H         25.48000        0.17100       59.38900
H         25.59800        1.51000       60.55200
H         26.18300       -0.27100       63.03300
H         26.97400        1.26000       62.61300
H         27.95200       -0.18900       62.87800
N         22.03900        0.75200       66.67700
C         23.18100        0.17700       65.97300
C         24.31100       -0.16700       66.94200
O         24.45400        0.47400       67.98400
C         23.67500        1.13700       64.88100
C         22.65000        1.45000       63.81200
C         22.42000        0.53200       62.77000
C         21.91900        2.65200       63.85900
C         21.45900        0.81200       61.78400
C         20.96300        2.93200       62.86800
C         20.72900        2.01100       61.83300
H         22.15300        1.68000       67.05500
H         21.17300        0.24300       66.78000
H         22.86100       -0.73900       65.48800
H         24.54500        0.69400       64.39600
H         24.00300        2.06600       65.34500
H         22.97900       -0.39100       62.72800
H         22.09000        3.36200       64.65600
H         21.27300        0.10400       60.99200
H         20.40600        3.85600       62.90300
H         20.00000        2.22900       61.06700
N         25.19200       -1.09300       66.53300
C         26.50500       -1.23900       67.15200
C         27.23400        0.10000       67.02400
O         27.12100        0.75700       65.99200
C         27.30400       -2.41200       66.53900
C         27.98900       -2.07300       65.20500
C         28.88800       -3.17700       64.64400
O         29.88600       -3.52600       65.31100
O         28.62200       -3.61400       63.50500
H         25.01500       -1.59500       65.67500
H         26.35400       -1.45600       68.21000
H         26.63500       -3.25900       66.39200
H         28.07400       -2.70300       67.25400
H         28.62800       -1.21100       65.35400
H         27.22200       -1.81400       64.47900
H         29.24800       -4.25500       63.16000
N         27.97400        0.50000       68.05700
C         28.71600        1.74800       68.08000
C         30.11400        1.52700       67.49900
O         30.81100        0.59100       67.89200
C         28.77200        2.27600       69.51600
C         29.52200        3.58300       69.65000
C         30.89100        3.57300       69.97100
C         28.86600        4.80900       69.42700
C         31.59500        4.78100       70.06800
C         29.58500        6.01200       69.52100
C         30.94800        6.00100       69.84100
H         28.06200       -0.10800       68.85800
H         28.18800        2.49000       67.48000
H         29.24500        1.52700       70.15200
H         27.75600        2.42300       69.87700
H         31.40700        2.63700       70.13000
H         27.81400        4.82800       69.18400
H         32.63700        4.77800       70.30800
H         29.10300        6.95500       69.35600
H         31.49300        6.92800       69.91400
N         30.54500        2.44100       66.62200
C         31.92800        2.54900       66.17300
C         32.43100        3.95600       66.47500
O         31.69100        4.92900       66.34900
C         32.09400        2.21200       64.68200
C         32.11000        0.70100       64.36800
C         30.68900        0.17300       64.15700
C         32.93600        0.39400       63.11100
H         29.91400        3.17900       66.33900
H         32.53700        1.85600       66.74900
H         33.04600        2.63500       64.35900
H         31.30400        2.70600       64.11800
H         32.56800        0.16600       65.20100
H         30.21700        0.68900       63.32000
H         30.10100        0.34700       65.05200
H         30.71500       -0.89700       63.95600
H         32.49700        0.87200       62.23900
H         32.97500       -0.68200       62.94200
H         33.95300        0.75900       63.24200
N         33.70000        4.05500       66.87500
C         34.26600        5.27700       67.43500
C         34.62900        6.32700       66.38600
O         34.74200        7.49900       66.74400
C         35.50400        4.93500       68.26800
C         35.21100        4.17100       69.53200
C         35.02700        2.82500       69.62000
N         35.06500        4.73200       70.80300
N         34.73100        2.54600       70.92700
C         34.76300        3.70200       71.61000
H         34.26900        3.21900       66.89500
H         33.52600        5.72700       68.09500
H         35.95900        5.87500       68.56500
H         36.21400        4.37200       67.65800
H         35.08800        2.12000       68.81700
H         34.51000        1.63300       71.30100
H         34.55000        3.79200       72.66400
N         34.82300        5.93600       65.12200
C         35.33200        6.82400       64.08700
C         34.62300        6.57100       62.75600
O         34.16600        5.46200       62.49300
C         36.86300        6.64200       64.01000
C         37.58400        7.45900       62.93000
C         37.57200        8.96600       63.18500
N         38.71700        9.61100       62.99700
O         36.55700        9.55600       63.54700
H         34.69500        4.96300       64.87600
H         35.11500        7.84800       64.37800
H         37.07900        5.58800       63.83700
H         37.29800        6.91000       64.97400
H         37.15300        7.25200       61.95500
H         38.61800        7.11800       62.88800
H         38.76800       10.59900       63.18500
H         39.55000        9.09600       62.74700
N         34.57200        7.61100       61.91400
C         34.18800        7.50600       60.51000
C         35.34200        7.90100       59.58000
O         36.30200        8.55800       59.99000
C         32.89300        8.28400       60.24100
C         33.04600        9.78400       60.41700
O         33.74400       10.39900       59.59000
O         32.43400       10.30800       61.37000
H         34.96400        8.49400       62.21300
H         33.97000        6.46400       60.30000
H         35.31400        7.59800       58.54400
H         32.12300        7.94400       60.93000
H         32.55200        8.08100       59.22600
H         32.53200       11.26100       61.44100
N         36.49700       11.71500       59.00000
C         37.38400       12.30600       60.00000
C         38.76600       11.65300       59.99400
O         39.74100       12.33400       60.29100
C         36.76600       12.22400       61.39900
C         35.36800       12.84000       61.46300
C         34.88300       13.09900       62.90300
C         33.44900       12.60700       63.12000
N         32.53600       13.05100       62.05500
H         35.72600       11.13900       59.31500
H         36.65000       11.87800       58.01500
H         37.51200       13.36100       59.75400
H         38.88100       10.61200       59.73300
H         37.42000       12.73900       62.10200
H         36.69600       11.17800       61.68100
H         34.69600       12.14700       60.97100
H         35.34900       13.77900       60.90800
H         34.94300       14.16700       63.11300
H         35.52100       12.56700       63.61000
H         33.06800       12.93900       64.08500
H         33.48000       11.51700       63.10900
H         33.01200       12.98000       61.16400
H         32.23100       14.00000       62.19000
N         31.55400        9.95500       55.53700
C         30.91000       10.07500       56.85000
C         29.96100        8.90500       57.16600
O         29.71300        8.62900       58.33500
C         30.19600       11.43300       56.96300
C         29.02100       11.57800       55.98900
C         28.53900       13.01900       55.86500
N         27.44800       13.37400       56.52400
O         29.14400       13.81700       55.16300
H         31.25600       10.58900       54.80800
H         32.26900        9.26200       55.36800
H         31.70200       10.06200       57.59900
H         30.92300       12.22400       56.76700
H         29.82100       11.55600       57.97900
H         28.20100       10.93000       56.29800
H         29.34500       11.26000       55.00800
H         27.09600       14.31900       56.44000
H         26.94500       12.69400       57.07500
N         29.47600        8.18300       56.14800
C         28.65100        6.98200       56.28500
C         29.47300        5.69000       56.39600
O         28.89200        4.60600       56.41200
C         27.68600        6.90300       55.09200
C         26.55900        7.92800       55.14500
O         26.24800        8.50600       56.18100
N         25.92200        8.14900       54.00500
H         29.73700        8.44800       55.20900
H         28.06400        7.06400       57.20200
H         30.55100        5.73200       56.46000
H         27.22700        5.92000       55.05900
H         28.24400        7.01500       54.16400
H         25.13600        8.77900       53.98000
H         26.22100        7.68400       53.15800
N         32.15500        3.65600       58.69300
C         32.64800        3.62500       60.06500
C         33.81800        2.66000       60.18000
O         33.77200        1.57500       59.61000
C         31.53400        3.21600       61.03100
C         30.28800        4.11700       61.02700
C         29.14300        3.38000       61.72400
C         30.57500        5.43900       61.74700
H         31.55500        2.89800       58.39600
H         32.40400        4.40500       58.06400
H         32.99500        4.61600       60.34700
H         34.68700        2.93000       60.76100
H         31.95700        3.21800       62.03400
H         31.23700        2.19600       60.78700
H         29.98000        4.32700       60.00200
H         29.40200        3.18800       62.76400
H         28.95600        2.43000       61.22400
H         28.23800        3.98300       61.67300
H         30.87400        5.25300       62.77900
H         29.68800        6.07000       61.73800
H         31.38000        5.95400       61.23100
N         27.19000        2.17200       56.65800
C         26.18800        2.67800       57.59100
C         25.27000        3.68600       56.90600
O         25.62000        4.23800       55.86800
C         26.88500        3.31600       58.79500
H         27.60700        2.84700       56.03200
H         27.45300        1.19700       56.63900
H         25.57100        1.85100       57.94200
H         27.44800        4.19400       58.48400
H         27.55800        2.59700       59.25800
H         26.13700        3.62700       59.52100
N         24.11700        3.96400       57.52200
C         23.10000        4.88600       57.01900
C         22.57200        4.48900       55.63500
O         22.52100        5.31100       54.72000
C         23.59900        6.34000       57.08800
C         22.46700        7.37400       57.04600
O         21.40100        7.11000       57.64900
O         22.69100        8.43900       56.42900
H         23.90900        3.48800       58.38900
H         22.26500        4.79200       57.71100
H         22.24000        3.47600       55.46200
H         24.27600        6.51700       56.25100
H         24.16300        6.47700       58.00700
H         21.97100        9.07400       56.44100
O         25.89400       11.65000       62.67100
H         26.56500       10.96300       62.71500
H         26.38300       12.45800       62.82300
O         30.77100        9.67500       70.18600
H         31.48400        9.12100       70.50600
H         30.69200       10.36500       70.85000
O         21.07300       11.13700       60.87200
H         21.93400       11.54700       60.73800
H         20.56500       11.81000       61.32500
O         23.75800       12.14700       60.81000
H         24.14400       13.02400       60.81500
H         24.34900       11.62900       61.36200
O         33.00100        8.29700       71.71800
H         33.71500        8.16800       71.08600
H         33.04100        9.23400       71.91800
O         20.48100        4.83400       59.72400
H         20.25800        4.58500       58.82500
H         21.32400        4.40200       59.88000
O         34.78700        8.71500       69.57700
H         34.95000        8.26500       68.74800
H         35.64700        9.04200       69.84700
O         29.66900       10.08000       60.68300
H         29.54200        9.36900       60.04800
H         30.61800       10.10600       60.82300
O         25.72100       11.21900       57.50200
H         24.91400       11.31800       58.00800
H         25.69700       10.31300       57.18500
O         22.48500        1.03800       58.27300
H         22.45300        0.08200       58.37400
H         22.63000        1.36000       59.16400
O         23.02700        3.27100       60.21700
H         23.77100        3.62500       60.71400
H         22.46400        2.88000       60.88600
O         28.33000       10.19900       63.05900
H         28.74300       10.16600       62.18900
H         28.31600        9.28400       63.34900
C         32.24100        9.39600       64.49400
C         31.44100        8.09300       64.40900
C         30.39400        8.09600       65.53100
N         29.65900        6.84200       65.48900
C         28.51900        6.66700       64.74900
O         28.04200        7.64600       64.17800
C         27.93900        5.34300       64.67200
N         28.37400        4.28600       65.33700
N         27.55800        3.28200       64.94800
C         26.60800        3.66800       64.06800
C         26.84900        4.97900       63.87500
N         26.16400        5.87800       63.00700
C         25.36100        5.54800       61.94800
O         25.07300        4.37200       61.74200
C         24.88300        6.65100       61.14500
C         23.54100        7.04900       61.22900
C         23.06700        8.13000       60.48500
C         23.93700        8.83300       59.65900
C         25.27300        8.45600       59.56300
C         25.74400        7.36400       60.29300
C         31.07200        8.21900       66.89900
N         32.87000        9.56300       65.82400
C         31.87900        9.51900       66.92400
Cl        27.40900        6.90100       60.12000
Cl        22.47100        6.20900       62.30200
H         31.56200       10.23100       64.31100
H         33.01100        9.39400       63.72100
H         32.11200        7.24000       64.51800
H         30.94700        8.03800       63.43900
H         29.73200        8.95200       65.39700
H         30.09700        6.00400       65.90900
H         27.66300        2.31600       65.30400
H         25.88200        3.00700       63.67200
H         26.38000        6.88200       63.11700
H         22.05000        8.41800       60.55500
H         23.57800        9.65400       59.09200
H         25.93600        8.98600       58.93000
H         31.74200        7.37800       67.07300
H         30.31700        8.24600       67.68300
H         33.53100        8.80800       65.96300
H         32.39400        9.59800       67.88300
H         31.18900       10.35700       66.82500
