372
1a_active_pm6d3.log	Energy:   -1160.0109147
N        -10.23300       60.21900        3.93000
C        -10.49300       61.65000        3.97600
C        -11.94400       61.87900        4.41000
O        -12.87700       61.43300        3.74000
C        -10.19500       62.25800        2.60700
H        -10.72800       59.67800        3.22500
H         -9.58800       59.78100        4.57200
H         -9.83000       62.12300        4.70100
H        -12.15100       62.43800        5.31100
H        -10.82700       61.79200        1.85200
H         -9.15100       62.09500        2.35000
H        -10.39500       63.33000        2.63100
N        -14.93600       64.43400        5.12100
C        -15.50200       65.76300        4.85600
C        -16.76000       65.94800        5.70200
O        -17.70700       65.17900        5.55900
C        -15.80400       65.89700        3.35400
C        -15.84600       67.36400        2.89600
C        -17.06100       67.65100        2.00100
C        -16.85500       68.90000        1.13900
N        -16.70200       70.10500        1.98000
H        -15.42100       63.62000        4.74600
H        -14.08900       64.32900        5.66100
H        -14.77200       66.52300        5.13800
H        -16.81600       66.75100        6.42200
H        -16.75200       65.40200        3.13700
H        -15.02900       65.38800        2.77800
H        -14.93600       67.56700        2.33100
H        -15.87200       68.03400        3.75700
H        -17.94700       67.77300        2.62700
H        -17.22000       66.80600        1.33200
H        -17.71500       69.01800        0.47200
H        -15.97100       68.75000        0.50800
H        -16.59200       70.90800        1.37700
H        -15.91000       69.97000        2.59500
N        -11.99400       59.90100       -7.23900
C        -11.85600       59.69500       -5.78700
C        -13.14000       59.06800       -5.24700
O        -14.20100       59.70000       -5.24700
C        -11.50100       60.98700       -5.03000
C        -11.30000       60.70500       -3.53500
C        -10.20100       61.59600       -5.56900
H        -12.16200       60.83900       -7.58900
H        -11.92200       59.12100       -7.87600
H        -11.04000       58.99000       -5.61600
H        -13.11900       58.06000       -4.85900
H        -12.30500       61.71400       -5.14900
H        -10.50400       59.97000       -3.39500
H        -12.21800       60.31900       -3.09500
H        -11.02800       61.62100       -3.01300
H         -9.39500       60.86700       -5.48600
H         -9.94300       62.48100       -4.99400
H        -10.32500       61.88500       -6.61200
N        -14.27100       59.51100        2.18500
C        -13.64300       59.25100        0.89000
C        -12.32900       58.47600        1.03800
O        -11.68800       58.48800        2.09200
C        -13.37600       60.57800        0.16000
C        -14.60300       61.37800       -0.21800
C        -15.10700       62.35100        0.66600
C        -15.21300       61.18400       -1.47200
C        -16.22100       63.12300        0.29900
C        -16.32900       61.95500       -1.83700
C        -16.82900       62.92200       -0.95000
H        -13.79400       60.16900        2.79100
H        -15.13300       59.06000        2.45900
H        -14.31400       58.65300        0.27500
H        -12.82100       60.37000       -0.75500
H        -12.73600       61.20000        0.78400
H        -14.63500       62.50500        1.62700
H        -14.82000       60.45000       -2.16100
H        -16.61100       63.86700        0.97800
H        -16.80100       61.81100       -2.79900
H        -17.68800       63.50500       -1.23300
N        -11.87000       57.91500       -0.07900
C        -10.48500       57.49500       -0.29100
C         -9.52900       58.66600        0.00500
O         -9.69500       59.76000       -0.53700
C        -10.37200       57.01600       -1.75200
C         -8.93500       56.75200       -2.22900
C         -8.81300       56.55100       -3.74700
O         -7.76900       56.00900       -4.17800
O         -9.72400       56.91700       -4.52700
H        -12.46200       57.96600       -0.90200
H        -10.24500       56.66700        0.37700
H        -10.82500       57.77300       -2.39300
H        -10.94900       56.09600       -1.86300
H         -8.56100       55.86500       -1.71300
H         -8.29600       57.59200       -1.95700
H         -9.55400       56.74900       -5.45700
N         -8.51400       58.45300        0.84900
C         -7.48800       59.46500        1.10800
C         -6.46100       59.54100       -0.03000
O         -5.91200       58.52600       -0.45200
C         -6.80400       59.17200        2.44400
C         -5.67800       60.11900        2.79500
C         -5.95900       61.44400        3.17800
C         -4.34600       59.67100        2.73100
C         -4.90700       62.31200        3.50900
C         -3.29700       60.53400        3.08400
C         -3.58400       61.85000        3.47900
H         -8.39700       57.53700        1.26100
H         -7.97400       60.43700        1.18300
H         -6.41600       58.15300        2.42200
H         -7.54500       59.23000        3.23300
H         -6.98000       61.79400        3.22700
H         -4.13000       58.66100        2.41000
H         -5.11000       63.33100        3.80300
H         -2.27300       60.19300        3.04200
H         -2.79000       62.50800        3.77500
N         -6.11400       60.76200       -0.44700
C         -5.13300       61.02000       -1.50600
C         -3.86300       61.62700       -0.89900
O         -3.86100       62.76400       -0.43100
C         -5.75400       61.93300       -2.57100
C         -7.05700       61.37800       -3.17300
S         -6.89000       59.85700       -4.14800
C         -5.89600       60.45600       -5.53800
H         -6.57700       61.56300       -0.03700
H         -4.86300       60.08300       -1.99600
H         -5.03200       62.08900       -3.36900
H         -5.95800       62.89900       -2.11900
H         -7.49700       62.14100       -3.81200
H         -7.77000       61.19300       -2.37000
H         -5.74000       59.64500       -6.24700
H         -4.93000       60.79500       -5.17600
H         -6.40400       61.28400       -6.03200
N         -2.78100       60.85600       -0.84700
C         -1.57900       61.17300       -0.05900
C         -0.78000       62.41100       -0.48000
O         -0.13400       63.00200        0.38200
C         -0.65700       59.94900        0.03400
C         -0.51600       59.13900       -1.26500
C          0.31400       57.87800       -1.03400
O          0.13300       57.25500        0.04300
O          1.11700       57.58900       -1.94300
H         -2.85100       59.91800       -1.21700
H         -1.90200       61.39500        0.95500
H         -1.05700       59.30600        0.81600
H          0.33800       60.27300        0.34700
H         -0.04300       59.76500       -2.02500
H         -1.49600       58.83500       -1.63700
H          1.64500       56.80300       -1.78400
N         -0.88100       62.87800       -1.72600
C         -0.13700       64.06000       -2.18100
C         -0.99700       65.33200       -2.28800
O         -0.51000       66.36400       -2.74400
C          0.63300       63.72200       -3.46300
C          1.70400       62.68300       -3.27300
C          2.87400       62.85700       -2.58500
N          1.68500       61.37900       -3.72200
N          3.57400       61.64800       -2.61000
C          2.80200       60.77700       -3.28300
H         -1.47700       62.40000       -2.39200
H          0.61700       64.30400       -1.43200
H          1.10500       64.62700       -3.84600
H         -0.06500       63.34700       -4.19900
H          0.94700       60.90900       -4.24200
H          3.18700       63.76300       -2.08700
H          3.04400       59.73200       -3.43800
N         -2.25100       65.29600       -1.81900
C         -3.13600       66.46500       -1.79400
C         -3.63300       66.89100       -3.17700
O         -3.73500       66.06800       -4.09000
H         -2.60100       64.41600       -1.46300
H         -2.60600       67.30300       -1.34200
H         -4.00800       66.24200       -1.18300
N         -4.08700       68.14100       -3.30800
C         -4.68400       68.61400       -4.55800
C         -3.63300       68.90900       -5.64300
O         -2.50400       69.31900       -5.36100
C         -5.67300       69.76600       -4.31300
S         -4.91200       71.40600       -4.51900
H         -3.96600       68.79600       -2.55000
H         -5.29000       67.79400       -4.93900
H         -3.89200       68.75400       -6.68000
H         -6.12800       69.67700       -3.32500
H         -6.47200       69.68400       -5.05300
H         -4.23800       71.54200       -3.35400
N         -7.01500       65.51900       -7.37700
C         -6.11500       65.09100       -6.30100
C         -5.04500       64.11000       -6.79200
O         -5.29700       63.31300       -7.69300
C         -6.94000       64.49400       -5.15100
C         -7.63300       65.56000       -4.27200
C         -9.12100       65.26500       -4.11400
C         -7.04000       65.58200       -2.86800
H         -7.50800       64.79200       -7.88900
H         -7.14000       66.49600       -7.60000
H         -5.57400       65.95300       -5.91700
H         -4.06300       64.11900       -6.34400
H         -6.26800       63.90800       -4.52800
H         -7.67800       63.80800       -5.57000
H         -7.51900       66.54800       -4.71500
H         -9.26200       64.29100       -3.64400
H         -9.58000       65.27800       -5.09900
H         -9.58200       66.03500       -3.49500
H         -7.24500       64.63800       -2.37000
H         -7.47900       66.39500       -2.29200
H         -5.96800       65.72300       -2.92200
N        -12.25000       64.68200       -8.44900
C        -13.06200       64.71200       -7.23200
C        -14.10100       65.83400       -7.28700
O        -14.08200       66.63700       -8.22200
C        -12.12300       64.87400       -6.04000
O        -12.78300       64.57700       -4.83700
H        -12.00700       65.57700       -8.85200
H        -11.94700       63.81300       -8.86400
H        -13.59500       63.76900       -7.11900
H        -11.74100       65.89200       -6.00200
H        -11.29000       64.18000       -6.15000
H        -12.15700       64.71500       -4.12200
N        -15.00000       65.87700       -6.30200
C        -15.94800       66.98000       -6.06600
C        -16.90600       67.23400       -7.25700
O        -17.09700       68.36100       -7.69000
C        -15.17200       68.21800       -5.55300
C        -15.98500       69.16000       -4.65200
O        -16.14000       68.82500       -3.45200
O        -16.35500       70.25400       -5.11900
H        -14.91200       65.16200       -5.58700
H        -16.58100       66.65900       -5.24100
H        -17.41500       66.39900       -7.71400
H        -14.76500       68.76900       -6.40200
H        -14.32400       67.87400       -4.95800
H        -16.77800       70.84200       -4.48800
N        -21.29800       66.71500       -5.41700
C        -21.31500       67.20700       -4.02900
C        -22.44800       68.19500       -3.72500
O        -22.62300       68.59600       -2.58000
C        -19.95300       67.83400       -3.69500
C        -18.84100       66.78500       -3.63600
S        -19.08000       65.45100       -2.43500
C        -19.00700       66.41200       -0.90500
H        -20.76500       67.23700       -6.09800
H        -21.80400       65.88200       -5.67900
H        -21.48000       66.36200       -3.35900
H        -23.09200       68.53800       -4.52100
H        -20.00900       68.33600       -2.72900
H        -19.70000       68.58500       -4.44500
H        -17.91500       67.29100       -3.38000
H        -18.72000       66.34400       -4.62400
H        -19.01300       65.74100       -0.05200
H        -19.87000       67.07600       -0.84600
H        -18.08700       66.99500       -0.89300
N         -6.18700       64.63200       12.10600
C         -5.75700       66.00900       11.84000
C         -6.53100       66.61800       10.66300
O         -6.94400       65.89500        9.75400
C         -4.23700       66.04800       11.56400
C         -3.79600       65.15800       10.38900
C         -2.28200       65.09100       10.24200
O         -1.63100       64.16500       10.69200
N         -1.66500       66.05100        9.58800
H         -6.61400       64.12700       11.34000
H         -6.06300       64.20700       13.01400
H         -5.96200       66.61500       12.72300
H         -6.71500       67.68200       10.63200
H         -3.71100       65.72500       12.46300
H         -3.94000       67.07700       11.35600
H         -4.22200       65.53600        9.46000
H         -4.15700       64.14600       10.55400
H         -0.66600       65.97200        9.52200
H         -2.19100       66.81500        9.19700
N         -6.82300       68.61300        7.05000
C         -6.10400       68.60100        5.75900
C         -6.72500       69.54300        4.70900
O         -5.99900       70.11700        3.90200
C         -5.97400       67.16000        5.18800
C         -7.33300       66.42700        5.09600
C         -4.95700       66.34200        6.00500
C         -7.28500       65.06100        4.40300
H         -7.83400       68.66900        7.04100
H         -6.31600       68.56600        7.92200
H         -5.09500       68.97900        5.92700
H         -7.79300       69.69800        4.68400
H         -5.57300       67.24600        4.17700
H         -8.02600       67.04500        4.53400
H         -7.73400       66.28600        6.09800
H         -5.33600       66.15900        7.01100
H         -4.01900       66.89400        6.07900
H         -4.75300       65.39000        5.52000
H         -6.84100       65.16800        3.41700
H         -8.29300       64.66500        4.29600
H         -6.70600       64.35600        4.99500
N        -11.86700       69.26600        6.00700
C        -11.57800       67.84900        5.73400
C        -10.54800       67.36500        6.74900
O         -9.63300       68.11700        7.08800
C        -11.05700       67.60600        4.29800
C        -11.00400       66.11600        3.93600
C        -11.90700       68.29900        3.22700
H        -11.07100       69.87200        6.16300
H        -12.81300       69.61700        6.03700
H        -12.49100       67.27500        5.86200
H        -10.61900       66.37200        7.16700
H        -10.04800       68.00100        4.22700
H        -12.00300       65.68300        3.95900
H        -10.36600       65.57400        4.63000
H        -10.58200       65.99200        2.93900
H        -12.92300       67.91800        3.27200
H        -11.48300       68.10300        2.24100
H        -11.90800       69.37400        3.38900
N         -7.78600       64.00300        7.80000
C         -7.16800       62.67900        7.72400
C         -7.75500       61.85800        8.87400
O         -7.75400       62.30000       10.02800
C         -5.63000       62.79000        7.82000
C         -4.88000       61.45600        8.06100
C         -4.72200       60.62800        6.78500
C         -3.48300       61.70800        8.62800
H         -7.34900       64.67800        8.42300
H         -8.60600       64.23700        7.26000
H         -7.43000       62.20600        6.77500
H         -8.17500       60.88300        8.67500
H         -5.40300       63.46000        8.64800
H         -5.25100       63.25100        6.90700
H         -5.41000       60.85200        8.79400
H         -4.11000       61.17100        6.06700
H         -5.69800       60.42300        6.34700
H         -4.23900       59.68100        7.02200
H         -2.89500       62.32300        7.94700
H         -2.97400       60.76000        8.80100
H         -3.56600       62.21600        9.58700
O        -15.28900       62.57600       -5.61000
H        -14.84400       61.81800       -5.23100
H        -15.95200       62.20100       -6.19000
C         -2.40800       65.81300        3.00900
C         -1.81700       66.02000        1.63200
C         -2.99300       65.08200        1.83000
C         -4.36900       65.57700        1.38300
O         -4.67300       66.75000        1.33100
N         -5.27300       64.61800        1.03200
C         -6.62000       64.74400        0.68700
N         -7.26000       63.68100        0.30200
C         -8.57100       64.02000        0.01200
C         -9.56700       63.14600       -0.45900
C        -10.85800       63.60600       -0.67300
C        -11.16900       64.96300       -0.43600
C        -10.19800       65.85000       -0.00200
C         -8.90100       65.35900        0.22000
S         -7.51900       66.23000        0.76500
O        -12.45400       65.44100       -0.61000
C        -13.30200       65.04400       -1.72300
C          0.79400       64.47200        5.69900
C         -0.19000       65.57200        6.11500
C         -0.88000       66.18900        4.89100
C         -1.61700       65.06900        4.11700
C         -0.56000       64.05200        3.60800
C          0.08400       63.40800        4.85100
H        -14.28800       65.49100       -1.59700
H        -13.38700       63.95800       -1.76600
H        -12.84300       65.44200       -2.62200
H         -2.99900       66.61700        3.42200
H         -0.87800       65.55200        1.37100
H         -2.01200       66.98700        1.18600
H         -2.82000       64.02600        1.68700
H         -4.88600       63.66700        0.92600
H         -9.32600       62.13200       -0.63600
H        -11.61000       62.93400       -0.99600
H        -10.42900       66.87000        0.15700
H          1.22000       64.01100        6.59100
H          1.60500       64.91400        5.11700
H          0.35400       66.35500        6.64500
H         -0.94100       65.15800        6.79000
H         -0.14600       66.67300        4.24400
H         -1.59400       66.94100        5.23300
H         -2.33000       64.58300        4.77000
H          0.21100       64.54100        3.01500
H         -1.01300       63.27800        2.99300
H          0.81500       62.66400        4.53100
H         -0.67500       62.90800        5.45600
