354
1b_active_pm6d3.log	Energy:   -1061.5759482
N        -10.23400       60.21900        3.93100
C        -10.49300       61.65000        3.97700
C        -11.94300       61.88000        4.40900
O        -12.87600       61.43500        3.73900
C        -10.19200       62.25800        2.60800
H        -10.72500       59.67900        3.22300
H         -9.59200       59.78000        4.57500
H         -9.83000       62.12300        4.70200
H        -12.15100       62.43800        5.31000
H        -10.82200       61.79200        1.85100
H         -9.14700       62.09600        2.35400
H        -10.39300       63.32900        2.63200
N        -14.93600       64.43300        5.12100
C        -15.50300       65.76200        4.85600
C        -16.76000       65.94800        5.70100
O        -17.70800       65.17900        5.55800
C        -15.80400       65.89700        3.35400
C        -15.84600       67.36400        2.89600
C        -17.06000       67.65100        2.00100
C        -16.85500       68.89900        1.13800
N        -16.70200       70.10500        1.98000
H        -15.42200       63.62000        4.74700
H        -14.08900       64.32900        5.66100
H        -14.77200       66.52300        5.13800
H        -16.81700       66.75100        6.42200
H        -16.75200       65.40100        3.13700
H        -15.02800       65.38700        2.77800
H        -14.93600       67.56700        2.33100
H        -15.87300       68.03400        3.75700
H        -17.94800       67.77300        2.62700
H        -17.21900       66.80600        1.33200
H        -17.71400       69.01800        0.47100
H        -15.97000       68.74900        0.50800
H        -16.59200       70.90800        1.37700
H        -15.91100       69.97000        2.59600
N        -11.99400       59.90100       -7.23900
C        -11.85600       59.69500       -5.78700
C        -13.14000       59.06800       -5.24700
O        -14.20100       59.69900       -5.24800
C        -11.50100       60.98700       -5.03000
C        -11.30000       60.70600       -3.53500
C        -10.20100       61.59600       -5.57000
H        -12.16200       60.83900       -7.58900
H        -11.92200       59.12100       -7.87600
H        -11.04000       58.99000       -5.61600
H        -13.11900       58.06000       -4.85900
H        -12.30500       61.71400       -5.14900
H        -10.50400       59.97100       -3.39500
H        -12.21900       60.31900       -3.09500
H        -11.02900       61.62100       -3.01300
H         -9.39500       60.86700       -5.48600
H         -9.94300       62.48100       -4.99400
H        -10.32500       61.88500       -6.61200
N        -14.27100       59.51100        2.18500
C        -13.64200       59.25100        0.89100
C        -12.32800       58.47700        1.03900
O        -11.68700       58.48900        2.09300
C        -13.37600       60.57900        0.16100
C        -14.60300       61.37800       -0.21700
C        -15.10700       62.35100        0.66600
C        -15.21200       61.18400       -1.47200
C        -16.22100       63.12300        0.29900
C        -16.32900       61.95500       -1.83700
C        -16.82900       62.92100       -0.95100
H        -13.79400       60.16900        2.79200
H        -15.13200       59.06100        2.45900
H        -14.31200       58.65300        0.27600
H        -12.82100       60.37100       -0.75400
H        -12.73500       61.20100        0.78400
H        -14.63500       62.50500        1.62700
H        -14.82000       60.44900       -2.16100
H        -16.61100       63.86600        0.97800
H        -16.80000       61.81100       -2.80000
H        -17.68800       63.50400       -1.23300
N        -11.86700       57.91800       -0.07800
C        -10.48200       57.49800       -0.28900
C         -9.52700       58.67100        0.00800
O         -9.69300       59.76400       -0.53500
C        -10.36900       57.01900       -1.75000
C         -8.93300       56.75500       -2.22800
C         -8.81100       56.55400       -3.74600
O         -7.76700       56.01300       -4.17800
O         -9.72400       56.91900       -4.52600
H        -12.45900       57.96800       -0.90200
H        -10.24200       56.67100        0.37900
H        -10.82300       57.77500       -2.39100
H        -10.94600       56.09900       -1.86100
H         -8.55900       55.86700       -1.71300
H         -8.29300       57.59400       -1.95600
H         -9.55500       56.75000       -5.45500
N         -8.51300       58.45900        0.85400
C         -7.48600       59.47100        1.11400
C         -6.45800       59.54700       -0.02300
O         -5.91200       58.53000       -0.44700
C         -6.80500       59.18000        2.45200
C         -5.66700       60.11600        2.79500
C         -5.92700       61.44600        3.17900
C         -4.34100       59.65200        2.71700
C         -4.85900       62.30700        3.48100
C         -3.27700       60.50900        3.03700
C         -3.53900       61.83500        3.41100
H         -8.39600       57.54300        1.26500
H         -7.97200       60.44400        1.18700
H         -6.42700       58.15800        2.43500
H         -7.54400       59.25000        3.24200
H         -6.94400       61.80600        3.24400
H         -4.14000       58.63800        2.40200
H         -5.04600       63.32900        3.77700
H         -2.25700       60.15900        2.97900
H         -2.72000       62.48900        3.65200
N         -6.11200       60.76700       -0.44400
C         -5.13600       61.02100       -1.50900
C         -3.86200       61.62900       -0.91200
O         -3.85300       62.77500       -0.46400
C         -5.75900       61.93200       -2.57300
C         -7.06100       61.37600       -3.17400
S         -6.89100       59.85500       -4.15000
C         -5.89600       60.45600       -5.53900
H         -6.57100       61.56900       -0.03200
H         -4.86800       60.08200       -1.99800
H         -5.03800       62.09000       -3.37100
H         -5.96500       62.89800       -2.12000
H         -7.50300       62.13800       -3.81300
H         -7.77300       61.18900       -2.37000
H         -5.73900       59.64500       -6.24800
H         -4.93100       60.79700       -5.17500
H         -6.40500       61.28200       -6.03400
N         -2.78500       60.85100       -0.85300
C         -1.57700       61.16800       -0.07300
C         -0.76900       62.39400       -0.50800
O         -0.09600       62.97200        0.34000
C         -0.66100       59.94000        0.02800
C         -0.51700       59.13100       -1.27100
C          0.31400       57.87100       -1.03900
O          0.13800       57.25200        0.04000
O          1.11600       57.58100       -1.94900
H         -2.86200       59.91000       -1.21100
H         -1.89400       61.40200        0.94100
H         -1.06900       59.29900        0.80800
H          0.33300       60.26000        0.34700
H         -0.04200       59.75900       -2.02900
H         -1.49600       58.82800       -1.64600
H          1.64700       56.79800       -1.78800
N         -0.88700       62.87300       -1.74800
C         -0.14200       64.05700       -2.19800
C         -1.00100       65.33000       -2.29600
O         -0.51000       66.36600       -2.73800
C          0.63300       63.72200       -3.47700
C          1.70400       62.68500       -3.28000
C          2.87100       62.86000       -2.58800
N          1.68500       61.37900       -3.72200
N          3.56900       61.65100       -2.60200
C          2.80000       60.77800       -3.27500
H         -1.49600       62.40700       -2.41000
H          0.61200       64.29900       -1.44900
H          1.10400       64.62900       -3.85800
H         -0.06100       63.34500       -4.21500
H          0.94900       60.90800       -4.24300
H          3.18400       63.76900       -2.09100
H          3.04100       59.73200       -3.42500
N         -2.25200       65.29400       -1.82000
C         -3.13500       66.46400       -1.78700
C         -3.63800       66.88800       -3.16900
O         -3.74200       66.06300       -4.07900
H         -2.60700       64.41000       -1.47900
H         -2.59900       67.30200       -1.34100
H         -4.00200       66.24500       -1.16600
H         -3.90300       67.92000       -3.34900
N         -7.01600       65.51900       -7.37600
C         -6.11500       65.09200       -6.30000
C         -5.04600       64.11000       -6.79200
O         -5.29800       63.31300       -7.69300
C         -6.94000       64.49500       -5.14900
C         -7.63300       65.56000       -4.27100
C         -9.12200       65.26600       -4.11400
C         -7.04400       65.58100       -2.86400
H         -7.50900       64.79200       -7.88800
H         -7.14200       66.49600       -7.59900
H         -5.57400       65.95300       -5.91700
H         -4.06300       64.12000       -6.34400
H         -6.26700       63.90900       -4.52600
H         -7.67800       63.80800       -5.56700
H         -7.51800       66.54900       -4.71200
H         -9.26400       64.29200       -3.64500
H         -9.57900       65.27900       -5.10000
H         -9.58400       66.03600       -3.49600
H         -7.25000       64.63700       -2.36800
H         -7.48300       66.39400       -2.28900
H         -5.97100       65.72100       -2.91700
N        -12.25000       64.68200       -8.44900
C        -13.06200       64.71200       -7.23200
C        -14.10000       65.83400       -7.28700
O        -14.08100       66.63700       -8.22200
C        -12.12200       64.87400       -6.04000
O        -12.78200       64.57700       -4.83700
H        -12.00700       65.57700       -8.85200
H        -11.94700       63.81300       -8.86400
H        -13.59500       63.76900       -7.11900
H        -11.74100       65.89200       -6.00200
H        -11.28900       64.18100       -6.15000
H        -12.15600       64.71700       -4.12200
N        -15.00100       65.87700       -6.30200
C        -15.94900       66.98000       -6.06600
C        -16.90600       67.23400       -7.25700
O        -17.09700       68.36200       -7.69000
C        -15.17200       68.21700       -5.55300
C        -15.98500       69.15900       -4.65200
O        -16.14000       68.82400       -3.45100
O        -16.35600       70.25300       -5.11800
H        -14.91300       65.16200       -5.58800
H        -16.58100       66.65900       -5.24100
H        -17.41500       66.39900       -7.71500
H        -14.76500       68.76900       -6.40200
H        -14.32400       67.87400       -4.95800
H        -16.77900       70.84100       -4.48800
N        -21.29800       66.71500       -5.41600
C        -21.31500       67.20700       -4.02900
C        -22.44800       68.19500       -3.72500
O        -22.62300       68.59600       -2.58000
C        -19.95300       67.83400       -3.69500
C        -18.84100       66.78500       -3.63600
S        -19.08000       65.45000       -2.43600
C        -19.00700       66.41100       -0.90500
H        -20.76500       67.23600       -6.09800
H        -21.80500       65.88200       -5.67900
H        -21.48100       66.36200       -3.35900
H        -23.09200       68.53800       -4.52100
H        -20.00900       68.33500       -2.72900
H        -19.70000       68.58500       -4.44500
H        -17.91500       67.29000       -3.38000
H        -18.72000       66.34400       -4.62400
H        -19.01300       65.74000       -0.05200
H        -19.87000       67.07500       -0.84500
H        -18.08700       66.99400       -0.89300
N         -6.18900       64.63300       12.10600
C         -5.75700       66.01000       11.83900
C         -6.53200       66.61900       10.66300
O         -6.94900       65.89500        9.75700
C         -4.23700       66.04700       11.56100
C         -3.79700       65.15500       10.38600
C         -2.28400       65.08600       10.23600
O         -1.63300       64.15700       10.68000
N         -1.66700       66.04700        9.58400
H         -6.61400       64.12900       11.33900
H         -6.06700       64.20800       13.01400
H         -5.96000       66.61600       12.72200
H         -6.71300       67.68300       10.63000
H         -3.71000       65.72400       12.46000
H         -3.93900       67.07600       11.35200
H         -4.22500       65.53300        9.45800
H         -4.15900       64.14300       10.55200
H         -0.67000       65.96600        9.50200
H         -2.19600       66.80000        9.17500
N         -6.82600       68.61200        7.05100
C         -6.10500       68.60000        5.76100
C         -6.72500       69.54200        4.71000
O         -6.00000       70.11900        3.90400
C         -5.97200       67.15900        5.19200
C         -7.32900       66.42200        5.10000
C         -4.95300       66.34400        6.00900
C         -7.27800       65.05700        4.40500
H         -7.83700       68.66100        7.04100
H         -6.32000       68.57100        7.92500
H         -5.09600       68.97900        5.93000
H         -7.79400       69.69400        4.68300
H         -5.57100       67.24600        4.18100
H         -8.02400       67.04000        4.53800
H         -7.72900       66.28000        6.10100
H         -5.33000       66.16100        7.01600
H         -4.01400       66.89400        6.07900
H         -4.74400       65.39100        5.52500
H         -6.83900       65.16800        3.41700
H         -8.28600       64.65700        4.30200
H         -6.69200       64.35300        4.99100
N        -11.86800       69.26600        6.00600
C        -11.57900       67.84900        5.73400
C        -10.55100       67.36600        6.75100
O         -9.64000       68.12100        7.09500
C        -11.05600       67.60600        4.29900
C        -11.00200       66.11500        3.93700
C        -11.90600       68.29800        3.22600
H        -11.07100       69.87200        6.16300
H        -12.81400       69.61800        6.03500
H        -12.49300       67.27600        5.86100
H        -10.62100       66.37200        7.16600
H        -10.04800       68.00100        4.22800
H        -12.00000       65.68100        3.96100
H        -10.36200       65.57400        4.63100
H        -10.58000       65.99200        2.94000
H        -12.92200       67.91600        3.27100
H        -11.48200       68.10200        2.24100
H        -11.90800       69.37300        3.38800
N         -7.78900       64.00300        7.80100
C         -7.17300       62.67800        7.72600
C         -7.76300       61.85700        8.87600
O         -7.76400       62.29900       10.03100
C         -5.63500       62.78700        7.82400
C         -4.88800       61.44900        8.06000
C         -4.72000       60.63300        6.77800
C         -3.49700       61.69500        8.64300
H         -7.34800       64.67900        8.41900
H         -8.61200       64.23500        7.26400
H         -7.43400       62.20500        6.77700
H         -8.18200       60.88200        8.67600
H         -5.40700       63.45400        8.65300
H         -5.25400       63.24900        6.91100
H         -5.42400       60.84000        8.78400
H         -4.11100       61.18600        6.06400
H         -5.69400       60.42600        6.33600
H         -4.23200       59.68600        7.00900
H         -2.91100       62.31800        7.97100
H         -2.98800       60.74700        8.81000
H         -3.58800       62.19700        9.60400
O        -15.29000       62.57700       -5.61100
H        -14.84500       61.82000       -5.23100
H        -15.95200       62.20100       -6.19100
C          0.19200       63.01700        5.35400
C         -0.99300       63.59400        5.79800
N         -1.71700       64.39900        5.01400
C         -1.31000       64.68600        3.77200
C         -0.11800       64.14400        3.28400
C          0.64100       63.29200        4.07300
C         -2.22000       65.62600        2.97600
C         -1.81200       66.04600        1.57800
C         -2.93500       65.05000        1.78000
C         -4.34500       65.55500        1.46900
O         -4.66600       66.72200        1.53400
N         -5.24700       64.61500        1.05500
C         -6.59600       64.74700        0.71100
N         -7.23700       63.68700        0.31800
C         -8.54800       64.02600        0.02400
C         -9.54300       63.15400       -0.45200
C        -10.83300       63.61400       -0.66900
C        -11.14500       64.97000       -0.43200
C        -10.17500       65.85600        0.00700
C         -8.87800       65.36500        0.23300
S         -7.49400       66.23400        0.78300
O        -12.43100       65.44800       -0.60900
C        -13.28600       65.04400       -1.71600
H          0.74900       62.38100        5.99300
H        -14.27100       65.49100       -1.58700
H        -13.37100       63.95800       -1.75300
H        -12.83300       65.43800       -2.62000
H         -1.34100       63.40300        6.78100
H          0.22400       64.37300        2.31300
H          1.54200       62.87200        3.70200
H         -2.74000       66.34300        3.59700
H         -0.90800       65.65500        1.13700
H         -2.07900       67.05700        1.29800
H         -2.76000       64.01600        1.52400
H         -4.85800       63.67100        0.90000
H         -9.30200       62.13900       -0.62900
H        -11.58400       62.94200       -0.99600
H        -10.40700       66.87600        0.16600
