380
1c_re_active_pm6d3.log	Energy:    -963.4205086
N         -6.45500       54.53700        5.72900
C         -6.44100       56.00400        5.63300
C         -7.61000       56.50700        4.78700
O         -7.79400       56.07000        3.64500
C         -5.10100       56.52600        5.08900
C         -3.96700       56.40300        6.11500
C         -2.65700       56.95800        5.53900
C         -1.45900       56.48900        6.37200
N         -0.18000       56.71600        5.65000
H         -5.73100       54.01600        5.25400
H         -7.17200       54.06100        6.25700
H         -6.56800       56.41100        6.63600
H         -8.28200       57.25000        5.19000
H         -5.21200       57.58100        4.83100
H         -4.83900       55.97600        4.18400
H         -3.83300       55.35200        6.37400
H         -4.22800       56.96200        7.01500
H         -2.69400       58.04900        5.53000
H         -2.54100       56.60100        4.51500
H         -1.57500       55.42100        6.57800
H         -1.45700       57.01900        7.32800
H         -0.04000       57.69400        5.44800
H         -0.16700       56.21300        4.77500
N        -10.27500       60.23200        3.97100
C        -10.50400       61.67100        3.98700
C        -11.95500       61.94200        4.39400
O        -12.88900       61.54600        3.69000
C        -10.16400       62.25500        2.61700
H        -10.75800       59.69400        3.25900
H         -9.66100       59.78900        4.64000
H         -9.84300       62.14300        4.71300
H        -12.16400       62.48400        5.30400
H        -10.79300       61.79700        1.85500
H         -9.11900       62.06800        2.38100
H        -10.34300       63.33100        2.62800
N        -14.89700       64.46600        5.10800
C        -15.47000       65.79600        4.85200
C        -16.72800       65.97200        5.70300
O        -17.65500       65.17000        5.58000
C        -15.78900       65.93100        3.35300
C        -15.83000       67.40200        2.90900
C        -17.05000       67.71800        2.03500
C        -16.84200       68.98000        1.19100
N        -16.65300       70.18800        2.03100
H        -15.35800       63.66100        4.69200
H        -14.07200       64.35500        5.67900
H        -14.74500       66.56300        5.12800
H        -16.80200       66.79100        6.40300
H        -16.74200       65.44200        3.13900
H        -15.02100       65.42400        2.76500
H        -14.92500       67.60200        2.33600
H        -15.84000       68.06100        3.77800
H        -17.92800       67.84300        2.67200
H        -17.22900       66.88400        1.35800
H        -17.71100       69.11500        0.54000
H        -15.96800       68.83300        0.55000
H        -15.84800       70.08400        2.63100
H        -17.45600       70.34800        2.62200
N        -11.98700       59.88400       -7.24400
C        -11.87000       59.68300       -5.79000
C        -13.15400       59.05300       -5.25400
O        -14.21800       59.68300       -5.24600
C        -11.50500       60.97200       -5.03000
C        -11.30600       60.68500       -3.53600
C        -10.20700       61.58300       -5.57100
H        -12.13800       60.82300       -7.59900
H        -11.91900       59.10100       -7.87800
H        -11.05400       58.98100       -5.61500
H        -13.13200       58.04100       -4.87500
H        -12.30700       61.70200       -5.14400
H        -10.51000       59.95100       -3.40000
H        -12.22500       60.30100       -3.09600
H        -11.03500       61.60200       -3.01600
H         -9.39600       60.86000       -5.49100
H         -9.95000       62.47100       -4.99600
H        -10.32900       61.87300       -6.61200
N        -14.26500       59.51100        2.22700
C        -13.63400       59.26300        0.93300
C        -12.33800       58.45800        1.04500
O        -11.68300       58.44200        2.09200
C        -13.38500       60.58700        0.19000
C        -14.61900       61.36900       -0.19900
C        -15.12700       62.34400        0.68100
C        -15.22400       61.16900       -1.45400
C        -16.24200       63.11200        0.30900
C        -16.34400       61.93400       -1.82300
C        -16.84800       62.90200       -0.94000
H        -13.79500       60.17100        2.83400
H        -15.12100       59.05000        2.50200
H        -14.31400       58.67400        0.31900
H        -12.83000       60.37600       -0.72400
H        -12.74700       61.22100        0.80400
H        -14.65300       62.51300        1.63800
H        -14.82500       60.43800       -2.14300
H        -16.62800       63.86900        0.97800
H        -16.81200       61.78800       -2.78700
H        -17.70500       63.48900       -1.22400
N        -11.88600       57.91100       -0.07800
C        -10.50400       57.48000       -0.27900
C         -9.53600       58.64700       -0.01400
O         -9.68100       59.71900       -0.60700
C        -10.39000       56.96600       -1.72200
C         -8.95400       56.69000       -2.18800
C         -8.83800       56.51600       -3.71100
O         -7.78300       56.01500       -4.16700
O         -9.76500       56.86700       -4.48200
H        -12.47800       57.97200       -0.90000
H        -10.26800       56.66600        0.40700
H        -10.83500       57.71900       -2.37300
H        -10.97200       56.04900       -1.82300
H         -8.58500       55.79600       -1.68200
H         -8.30600       57.52200       -1.91200
H         -9.59400       56.72000       -5.41500
N         -8.52400       58.44100        0.83500
C         -7.48100       59.44200        1.08400
C         -6.44700       59.54500       -0.04700
O         -5.97200       58.51700       -0.54400
C         -6.83800       59.22400        2.45600
C         -5.67100       60.13300        2.77300
C         -5.91400       61.46900        3.14900
C         -4.35100       59.64900        2.71700
C         -4.84000       62.31900        3.45800
C         -3.27900       60.49600        3.04100
C         -3.52500       61.83000        3.40200
H         -8.43800       57.54100        1.28600
H         -7.97100       60.41600        1.13700
H         -6.48500       58.19300        2.50400
H         -7.59000       59.35300        3.22500
H         -6.92800       61.84100        3.20700
H         -4.15700       58.62300        2.43600
H         -5.02200       63.34300        3.75100
H         -2.26300       60.12500        3.01400
H         -2.69800       62.47300        3.64900
N         -6.06900       60.76600       -0.43500
C         -5.10400       61.02700       -1.51200
C         -3.81900       61.63100       -0.92900
O         -3.79700       62.78200       -0.49100
C         -5.74500       61.93400       -2.57100
C         -7.05900       61.37800       -3.14700
S         -6.91500       59.84600       -4.11300
C         -5.92400       60.43500       -5.51300
H         -6.49500       61.56800        0.01400
H         -4.83800       60.09400       -2.00900
H         -5.03900       62.08700       -3.38300
H         -5.94400       62.90200       -2.12100
H         -7.50400       62.13800       -3.78800
H         -7.76100       61.20700       -2.33200
H         -5.77700       59.62500       -6.22500
H         -4.95200       60.77000       -5.16100
H         -6.43000       61.26600       -6.00500
N         -2.75000       60.83700       -0.86800
C         -1.53000       61.12400       -0.09000
C         -0.68300       62.33300       -0.51600
O          0.12000       62.80600        0.29200
C         -0.64400       59.87100        0.02000
C         -0.43800       59.08900       -1.28800
C          0.30200       57.75800       -1.05600
O          0.13300       57.11100        0.00800
O          1.05200       57.32600       -1.96300
H         -2.85300       59.90000       -1.23000
H         -1.85100       61.36400        0.92400
H         -1.09800       59.21700        0.76200
H          0.33900       60.16000        0.39400
H          0.11600       59.71100       -1.99300
H         -1.40700       58.85500       -1.73400
H          1.47100       56.48300       -1.77600
N         -0.88200       62.89800       -1.71000
C         -0.14200       64.08200       -2.17300
C         -0.99800       65.35800       -2.28000
O         -0.51900       66.39200       -2.76000
C          0.65300       63.74900       -3.44100
C          1.71400       62.70200       -3.24600
C          2.86800       62.85000       -2.52700
N          1.69400       61.41400       -3.73300
N          3.56300       61.63600       -2.57700
C          2.81300       60.79800       -3.31700
H         -1.55000       62.47400       -2.34400
H          0.60500       64.33700       -1.42100
H          1.13700       64.65300       -3.81000
H         -0.03500       63.38500       -4.19300
H          0.97600       60.99000       -4.31600
H          3.17800       63.74800       -2.00900
H          3.07500       59.77200       -3.54800
N         -2.24100       65.32300       -1.78600
C         -3.14300       66.47900       -1.76800
C         -3.61300       66.90000       -3.16200
O         -3.58100       66.10400       -4.10500
H         -2.58100       64.44500       -1.41600
H         -2.63300       67.32300       -1.30400
H         -4.02300       66.24300       -1.17200
H         -3.97700       67.90500       -3.32300
N         -7.01300       65.52900       -7.39200
C         -6.12200       65.09300       -6.31000
C         -5.05600       64.10100       -6.79200
O         -5.31200       63.24700       -7.64100
C         -6.95300       64.49500       -5.16200
C         -7.63500       65.55700       -4.27500
C         -9.11900       65.25900       -4.09700
C         -7.02500       65.58100       -2.87700
H         -7.50000       64.80600       -7.91200
H         -7.13600       66.50800       -7.61000
H         -5.57700       65.94900       -5.92200
H         -4.06000       64.15300       -6.37800
H         -6.28600       63.89700       -4.54300
H         -7.69700       63.81600       -5.58400
H         -7.53100       66.54600       -4.71800
H         -9.25300       64.28400       -3.62800
H         -9.59000       65.26300       -5.07700
H         -9.58000       66.02600       -3.47500
H         -7.23000       64.64000       -2.37500
H         -7.45600       66.39800       -2.29800
H         -5.95200       65.71900       -2.94600
N        -12.26500       64.70400       -8.44400
C        -13.07900       64.74600       -7.22400
C        -14.08300       65.90400       -7.26700
O        -14.00200       66.77800       -8.13600
C        -12.15000       64.85300       -6.00900
O        -12.83900       64.65600       -4.78800
H        -12.02700       65.58500       -8.87800
H        -11.95300       63.82700       -8.83500
H        -13.64600       63.82100       -7.13700
H        -11.69100       65.83800       -5.99900
H        -11.36400       64.10200       -6.09600
H        -12.22400       64.85100       -4.06300
N        -15.01200       65.92800       -6.31200
C        -15.97900       67.00600       -6.06000
C        -16.89100       67.24400       -7.29300
O        -17.06600       68.37400       -7.75600
C        -15.20300       68.25200       -5.58100
C        -16.08800       69.27300       -4.84900
O        -16.27300       69.12600       -3.61700
O        -16.55500       70.25800       -5.46800
H        -14.97200       65.17300       -5.63600
H        -16.61900       66.67500       -5.24400
H        -17.38300       66.40100       -7.75600
H        -14.71700       68.73200       -6.43200
H        -14.41500       67.93500       -4.89400
H        -17.05500       70.87600       -4.92900
N        -21.29800       66.67300       -5.39800
C        -21.32900       67.17500       -4.01400
C        -22.48000       68.14500       -3.70900
O        -22.75800       68.43800       -2.54600
C        -19.98100       67.83000       -3.67500
C        -18.85000       66.79900       -3.62900
S        -19.05900       65.46600       -2.42100
C        -18.98700       66.42200       -0.88400
H        -20.70300       67.14800       -6.06100
H        -21.85400       65.87700       -5.67600
H        -21.47400       66.32800       -3.34500
H        -23.05000       68.57200       -4.52000
H        -20.04600       68.32400       -2.70600
H        -19.74400       68.58900       -4.42200
H        -17.92700       67.31800       -3.38400
H        -18.73500       66.35600       -4.61700
H        -18.99000       65.74800       -0.03200
H        -19.85100       67.08300       -0.81400
H        -18.07000       67.00900       -0.86100
N         -6.15900       64.66100       12.13300
C         -5.71900       66.03300       11.85100
C         -6.50100       66.64000       10.67800
O         -6.92800       65.92100        9.77000
C         -4.20300       66.05600       11.55600
C         -3.78500       65.14300       10.38800
C         -2.27300       65.04100       10.21600
O         -1.61200       64.18000       10.78800
N         -1.64200       66.03700        9.63000
H         -6.57800       64.14800       11.37000
H         -6.04800       64.24900       13.04900
H         -5.91100       66.65100       12.72900
H         -6.67900       67.70500       10.64700
H         -3.67000       65.73900       12.45300
H         -3.90000       67.08000       11.33200
H         -4.21500       65.51800        9.45900
H         -4.16500       64.14000       10.56200
H         -0.63800       66.00000        9.56200
H         -2.16700       66.79000        9.21200
N         -6.82500       68.61400        7.05500
C         -6.10100       68.58800        5.76500
C         -6.70200       69.53500        4.71000
O         -5.95500       70.13800        3.93400
C         -5.98300       67.14800        5.19700
C         -7.33900       66.40800        5.12300
C         -4.97300       66.33100        6.02000
C         -7.29400       65.05200        4.41000
H         -7.83800       68.64600        7.04000
H         -6.32100       68.59900        7.93100
H         -5.08800       68.95300        5.93300
H         -7.77200       69.67000        4.64900
H         -5.58500       67.22700        4.18500
H         -8.04000       67.02900        4.57300
H         -7.72800       66.26000        6.12700
H         -5.35000       66.15900        7.02900
H         -4.02500       66.86600        6.07800
H         -4.79300       65.36900        5.54400
H         -6.86200       65.17400        3.42000
H         -8.30200       64.65300        4.30800
H         -6.70400       64.33800        4.98100
N        -11.87800       69.28100        5.98200
C        -11.54600       67.86900        5.73900
C        -10.55200       67.37400        6.78700
O         -9.70500       68.14700        7.24500
C        -11.05200       67.60400        4.29600
C        -11.01800       66.11400        3.93000
C        -11.88900       68.31900        3.22900
H        -11.10700       69.93200        6.02900
H        -12.83400       69.58600        6.09700
H        -12.45700       67.28800        5.86000
H        -10.59000       66.35000        7.12800
H        -10.03900       67.98500        4.21600
H        -12.02200       65.69300        3.96400
H        -10.37300       65.56500        4.61100
H        -10.61100       65.99300        2.92600
H        -12.91200       67.95500        3.26900
H        -11.47100       68.12400        2.24100
H        -11.88200       69.39600        3.39100
N         -7.76700       63.98800        7.78800
C         -7.14500       62.66600        7.71700
C         -7.72800       61.84500        8.86900
O         -7.73300       62.29200       10.02300
C         -5.60800       62.77400        7.80300
C         -4.87100       61.43600        8.05800
C         -4.69400       60.62200        6.77800
C         -3.49000       61.68600        8.66000
H         -7.30400       64.68900        8.35600
H         -8.62200       64.19400        7.29100
H         -7.40500       62.18900        6.77000
H         -8.14000       60.86600        8.67400
H         -5.37600       63.45100        8.62300
H         -5.23100       63.22500        6.88400
H         -5.41500       60.82800        8.77800
H         -4.07900       61.17600        6.06900
H         -5.66400       60.41400        6.32900
H         -4.20400       59.67700        7.00900
H         -2.90200       62.31200        7.99500
H         -2.97800       60.73800        8.82300
H         -3.59700       62.18000        9.62300
C          0.37100       61.16400        7.12800
O          0.95100       61.99600        6.07100
C          0.21500       62.92200        5.35900
C         -0.95200       63.52400        5.89300
C         -1.69500       64.40600        5.08700
C         -1.31100       64.71100        3.78200
C         -0.13400       64.14800        3.28300
C          0.63900       63.25600        4.05100
C         -2.21400       65.66200        2.98600
C         -1.81900       66.06500        1.58000
C         -2.94900       65.08000        1.80400
C         -4.36400       65.58900        1.50800
O         -4.70000       66.75500        1.63000
N         -5.26000       64.65500        1.06000
C         -6.61200       64.78000        0.71800
N         -7.24600       63.71500        0.32500
C         -8.55700       64.04300        0.03200
C         -9.54000       63.16400       -0.44700
C        -10.85200       63.63100       -0.68000
C        -11.20000       64.99000       -0.46000
C        -10.20300       65.85800       -0.00200
C         -8.90400       65.37600        0.23600
S         -7.52700       66.25700        0.78800
N        -14.54200       65.49900       -1.50500
N        -13.46500       64.78400       -1.46100
C        -12.56400       65.46700       -0.72400
N        -13.03900       66.59600       -0.29300
N        -14.26800       66.58500       -0.79400
H         -0.69800       61.11600        6.97800
H          0.61900       61.60700        8.08400
H          0.80300       60.17700        7.03600
H         -1.26900       63.31500        6.90200
H         -2.59400       64.85200        5.48400
H          0.20200       64.39000        2.29000
H          1.53900       62.81600        3.64200
H         -2.72000       66.39500        3.60100
H         -0.92500       65.66200        1.13000
H         -2.08000       67.07400        1.29000
H         -2.78300       64.04300        1.55400
H         -4.86800       63.71100        0.91500
H         -9.27300       62.13500       -0.61300
H        -11.61400       62.94300       -1.02400
H        -10.41900       66.88300        0.15900
H        -14.96000       67.35200       -0.65600
