354
1d_active_pm6d3.log	Energy:   -1067.0144771
N        -10.23600       60.21900        3.93200
C        -10.49600       61.65000        3.97500
C        -11.94700       61.88200        4.40300
O        -12.87900       61.44200        3.72800
C        -10.19300       62.25600        2.60600
H        -10.72900       59.67600        3.22700
H         -9.59300       59.78200        4.57700
H         -9.83400       62.12400        4.70000
H        -12.15600       62.43600        5.30700
H        -10.82300       61.78900        1.85000
H         -9.14800       62.09100        2.35300
H        -10.39200       63.32700        2.62900
N        -14.93700       64.44000        5.10700
C        -15.50600       65.77300        4.85300
C        -16.75800       65.95200        5.70900
O        -17.69500       65.16700        5.58400
C        -15.81900       65.93300        3.35400
C        -15.81300       67.40700        2.90900
C        -17.00300       67.77500        2.01000
C        -16.71000       69.01100        1.14400
N        -16.40000       70.20800        1.96200
H        -15.42600       63.62800        4.73300
H        -14.08500       64.33300        5.63800
H        -14.77400       66.53000        5.14000
H        -16.81900       66.76400        6.41900
H        -15.06600       65.40300        2.76600
H        -16.78500       65.47300        3.13900
H        -15.81600       68.06700        3.77900
H        -14.89400       67.58100        2.35100
H        -17.88400       67.95100        2.63300
H        -17.21500       66.94000        1.34300
H        -17.57500       69.20800        0.50300
H        -15.86300       68.78300        0.48700
H        -15.59000       70.03800        2.54200
H        -17.18500       70.45500        2.54900
N        -11.98900       59.89900       -7.23900
C        -11.84900       59.69200       -5.78700
C        -13.13300       59.07000       -5.24700
O        -14.18900       59.71000       -5.24000
C        -11.49300       60.98400       -5.03100
C        -11.29600       60.70400       -3.53500
C        -10.19400       61.59400       -5.56900
H        -12.16000       60.83600       -7.59000
H        -11.91500       59.11900       -7.87600
H        -11.03400       58.98500       -5.61600
H        -13.11900       58.05900       -4.86700
H        -12.29600       61.71100       -5.15000
H        -10.50100       59.96800       -3.39300
H        -12.21500       60.31800       -3.09500
H        -11.02300       61.62000       -3.01400
H         -9.38800       60.86600       -5.48600
H         -9.93600       62.47900       -4.99300
H        -10.31700       61.88300       -6.61100
N        -14.26800       59.48800        2.19800
C        -13.64500       59.23000        0.90100
C        -12.32400       58.46600        1.04300
O        -11.68100       58.48300        2.09600
C        -13.39600       60.55800        0.17000
C        -14.63600       61.34100       -0.19900
C        -15.16800       62.28200        0.70300
C        -15.22100       61.17700       -1.47000
C        -16.26300       63.07700        0.32500
C        -16.33000       61.95500       -1.83800
C        -16.84300       62.90700       -0.94300
H        -13.78500       60.14100        2.80700
H        -15.13100       59.04200        2.47300
H        -14.31400       58.62600        0.29100
H        -12.75900       61.18800        0.78900
H        -12.84400       60.35600       -0.74800
H        -14.70900       62.42100        1.67300
H        -14.81400       60.46000       -2.17000
H        -16.65700       63.81600        1.00600
H        -16.78500       61.83000       -2.81300
H        -17.69200       63.50100       -1.23200
N        -11.86400       57.91100       -0.07500
C        -10.47800       57.49400       -0.28800
C         -9.52500       58.66800        0.01000
O         -9.69400       59.76200       -0.53100
C        -10.36600       57.01700       -1.75100
C         -8.92800       56.75400       -2.22700
C         -8.80500       56.55200       -3.74500
O         -7.76300       56.00500       -4.17500
O         -9.71400       56.92300       -4.52600
H        -12.45800       57.96000       -0.89800
H        -10.23700       56.66700        0.37800
H        -10.94200       56.09800       -1.86200
H        -10.81900       57.77400       -2.39100
H         -8.55400       55.86700       -1.71100
H         -8.29000       57.59400       -1.95500
H         -9.54400       56.75500       -5.45600
N         -8.51100       58.45600        0.85500
C         -7.48500       59.46900        1.11400
C         -6.45800       59.54600       -0.02400
O         -5.91100       58.52900       -0.44800
C         -6.80200       59.18000        2.45300
C         -5.66400       60.11600        2.79600
C         -5.92400       61.44800        3.17500
C         -4.33800       59.65300        2.72200
C         -4.85600       62.31200        3.47200
C         -3.27500       60.51100        3.04000
C         -3.53500       61.83900        3.40500
H         -8.39200       57.54000        1.26600
H         -7.97100       60.44200        1.18800
H         -7.54100       59.24900        3.24300
H         -6.42400       58.15800        2.43600
H         -6.94200       61.80800        3.23600
H         -4.13700       58.63700        2.41100
H         -5.04800       63.33500        3.75700
H         -2.25400       60.16000        2.98500
H         -2.71200       62.49200        3.63500
N         -6.11200       60.76600       -0.44300
C         -5.13500       61.02200       -1.50700
C         -3.86100       61.62900       -0.90700
O         -3.85300       62.77300       -0.45400
C         -5.75800       61.93400       -2.57100
C         -7.06000       61.37800       -3.17200
S         -6.89100       59.85700       -4.14800
C         -5.89700       60.45700       -5.53700
H         -6.57200       61.56800       -0.03100
H         -4.86700       60.08400       -1.99600
H         -5.03700       62.09200       -3.36900
H         -5.96400       62.90000       -2.11800
H         -7.50100       62.14000       -3.81100
H         -7.77300       61.19100       -2.36900
H         -5.73900       59.64500       -6.24600
H         -4.93200       60.79800       -5.17500
H         -6.40600       61.28300       -6.03300
N         -2.78300       60.85300       -0.85100
C         -1.57500       61.16700       -0.07100
C         -0.76400       62.39100       -0.50600
O         -0.08400       62.96400        0.34100
C         -0.66200       59.93800        0.03000
C         -0.51800       59.13200       -1.27000
C          0.31500       57.87300       -1.03900
O          0.13100       57.24500        0.03300
O          1.12600       57.59300       -1.94500
H         -2.86000       59.91200       -1.21300
H         -1.89200       61.40300        0.94300
H          0.33300       60.25600        0.35000
H         -1.07100       59.29600        0.80900
H         -0.04400       59.76100       -2.02700
H         -1.49700       58.82800       -1.64400
H          1.65700       56.80900       -1.78600
N         -0.88600       62.87400       -1.74400
C         -0.14100       64.05700       -2.19600
C         -1.00100       65.33000       -2.29600
O         -0.50900       66.36700       -2.73500
C          0.63200       63.72200       -3.47600
C          1.70300       62.68300       -3.28100
C          2.87200       62.85700       -2.59200
N          1.68400       61.37800       -3.72800
N          3.57200       61.64800       -2.61400
C          2.80100       60.77600       -3.28700
H         -1.49700       62.40900       -2.40600
H          0.61300       64.30100       -1.44800
H          1.10400       64.62800       -3.85600
H         -0.06300       63.34500       -4.21300
H          0.94800       60.90800       -4.25000
H          3.18600       63.76400       -2.09500
H          3.04200       59.73100       -3.44100
N         -2.25300       65.29400       -1.82300
C         -3.13600       66.46400       -1.79100
C         -3.63800       66.88900       -3.17400
O         -3.74100       66.06500       -4.08500
H         -2.60800       64.40900       -1.48200
H         -4.00400       66.24500       -1.17100
H         -2.60000       67.30200       -1.34400
H         -3.90400       67.92000       -3.35200
N         -7.01500       65.52000       -7.37600
C         -6.11400       65.09200       -6.30100
C         -5.04500       64.11000       -6.79400
O         -5.29700       63.31400       -7.69500
C         -6.93900       64.49500       -5.15000
C         -7.63100       65.56100       -4.27300
C         -9.12000       65.26800       -4.11800
C         -7.04200       65.58100       -2.86700
H         -7.50700       64.79200       -7.88800
H         -7.14100       66.49700       -7.59900
H         -5.57300       65.95400       -5.91800
H         -4.06300       64.11900       -6.34500
H         -7.67700       63.80800       -5.56900
H         -6.26600       63.90900       -4.52800
H         -7.51500       66.55000       -4.71400
H         -9.26400       64.29500       -3.64800
H         -9.57800       65.28200       -5.10400
H         -9.58200       66.03800       -3.49900
H         -7.25000       64.63900       -2.36900
H         -7.47900       66.39600       -2.29300
H         -5.96900       65.72000       -2.91800
N        -12.23100       64.68400       -8.41400
C        -13.06700       64.70800       -7.21100
C        -14.10200       65.83300       -7.28700
O        -14.06500       66.63600       -8.22000
C        -12.16200       64.85900       -5.98600
O        -12.84400       64.55300       -4.78400
H        -11.98900       65.58000       -8.81500
H        -11.91200       63.81600       -8.82200
H        -13.60700       63.76800       -7.12800
H        -11.77700       65.87700       -5.94100
H        -11.32300       64.17000       -6.08500
H        -12.29900       64.88000       -4.05800
N        -15.01300       65.88100       -6.31300
C        -15.95600       66.98800       -6.08800
C        -16.91000       67.23600       -7.28100
O        -17.09800       68.36200       -7.71900
C        -15.17300       68.22400       -5.58500
C        -15.99600       69.17900       -4.71100
O        -16.20200       68.83400       -3.52300
O        -16.33100       70.27800       -5.19200
H        -14.95700       65.16100       -5.60500
H        -16.59100       66.67700       -5.26100
H        -17.42000       66.39900       -7.73500
H        -14.75200       68.76100       -6.43600
H        -14.33600       67.88300       -4.97200
H        -16.77300       70.87100       -4.58000
N        -21.29800       66.71000       -5.41500
C        -21.31700       67.20200       -4.02800
C        -22.44900       68.19100       -3.72400
O        -22.62700       68.59100       -2.57900
C        -19.95400       67.82800       -3.69100
C        -18.84600       66.77400       -3.62500
S        -19.08900       65.44900       -2.41500
C        -19.00600       66.42000       -0.89100
H        -20.76200       67.22900       -6.09500
H        -21.80700       65.87900       -5.67800
H        -21.48400       66.35800       -3.35800
H        -23.09100       68.53600       -4.52100
H        -20.01100       68.33200       -2.72700
H        -19.69600       68.57500       -4.44300
H        -17.92000       67.27600       -3.37100
H        -18.72500       66.32700       -4.61100
H        -19.01200       65.75400       -0.03300
H        -19.86500       67.08800       -0.83300
H        -18.08400       67.00000       -0.88400
N         -6.19000       64.63300       12.10700
C         -5.75900       66.01100       11.84000
C         -6.53300       66.61900       10.66300
O         -6.94200       65.89600        9.75300
C         -4.23900       66.04900       11.56400
C         -3.80000       65.15800       10.38900
C         -2.28700       65.08600       10.23900
O         -1.64000       64.15200       10.67800
N         -1.66700       66.04400        9.58500
H         -6.61800       64.12900       11.34100
H         -6.06400       64.20800       13.01500
H         -5.96400       66.61700       12.72400
H         -6.71900       67.68300       10.63200
H         -3.94100       67.07800       11.35600
H         -3.71200       65.72400       12.46300
H         -4.22600       65.53800        9.46000
H         -4.16300       64.14700       10.55200
H         -0.66800       65.96000        9.51600
H         -2.18700       66.81800        9.20600
N         -6.82800       68.61700        7.04900
C         -6.11000       68.60100        5.75800
C         -6.72600       69.53800        4.70300
O         -5.99600       70.10100        3.89300
C         -5.98300       67.15900        5.19100
C         -7.33900       66.42200        5.10000
C         -4.96800       66.34300        6.01100
C         -7.28900       65.05700        4.40200
H         -7.84000       68.67800        7.04000
H         -6.32200       68.56900        7.92200
H         -5.10100       68.97800        5.92600
H         -7.79400       69.70000        4.67700
H         -5.57900       67.24300        4.18100
H         -7.73700       66.27900        6.10100
H         -8.03400       67.04000        4.54000
H         -5.34600       66.16900        7.01900
H         -4.02700       66.88900        6.07700
H         -4.78000       65.38500        5.53200
H         -6.69000       64.35500        4.97700
H         -6.86700       65.17300        3.40700
H         -8.29500       64.65000        4.31400
N        -11.86800       69.26200        6.00000
C        -11.57000       67.84700        5.73000
C        -10.54600       67.36300        6.75000
O         -9.63100       68.11200        7.09600
C        -11.04800       67.61200        4.29500
C        -10.99700       66.12100        3.93100
C        -11.90000       68.30800        3.22700
H        -11.08000       69.88900        6.10200
H        -12.81800       69.59400        6.08000
H        -12.48300       67.27000        5.85200
H        -10.62200       66.37000        7.16800
H        -10.04100       68.00600        4.22500
H        -11.99700       65.69000        3.95300
H        -10.36000       65.57800        4.62500
H        -10.57600       66.00000        2.93200
H        -12.91500       67.92700        3.27200
H        -11.47900       68.11900        2.23900
H        -11.90900       69.38600        3.39000
N         -7.78900       64.00200        7.80100
C         -7.17100       62.67800        7.72400
C         -7.75800       61.85700        8.87400
O         -7.75400       62.29900       10.02900
C         -5.63300       62.78800        7.82100
C         -4.88700       61.45000        8.05900
C         -4.71900       60.63300        6.77700
C         -3.49600       61.69800        8.64000
H         -7.35300       64.67600        8.42400
H         -8.60900       64.23500        7.26000
H         -7.43300       62.20400        6.77500
H         -8.18100       60.88300        8.67500
H         -5.25400       63.24900        6.90900
H         -5.40600       63.45500        8.65000
H         -5.42200       60.84100        8.78300
H         -4.10800       61.18200        6.06200
H         -5.69300       60.42500        6.33500
H         -4.23300       59.68700        7.00900
H         -2.90700       62.31700        7.96800
H         -2.98600       60.75000        8.80900
H         -3.58600       62.20000        9.60200
O        -15.10400       62.66400       -5.44300
H        -14.98300       61.71400       -5.45900
H        -14.33500       62.99500       -4.97900
N          0.17800       62.94000        5.33300
C         -0.92000       63.50400        5.83300
C         -1.69600       64.38600        5.08600
C         -1.33600       64.70700        3.78100
C         -0.16400       64.12800        3.30000
C          0.56200       63.24900        4.09500
C         -2.23000       65.65300        2.97800
C         -1.81100       66.05300        1.58000
C         -2.93800       65.06300        1.78500
C         -4.34700       65.56400        1.47000
O         -4.67400       66.72700        1.55300
N         -5.24500       64.62200        1.05300
C         -6.59400       64.75100        0.71100
N         -7.23800       63.68700        0.33500
C         -8.54500       64.02800        0.02900
C         -9.54100       63.15400       -0.43900
C        -10.82200       63.62100       -0.69300
C        -11.11900       64.98900       -0.50500
C        -10.15100       65.87400       -0.06100
C         -8.86600       65.37400        0.20600
S         -7.48500       66.24300        0.75900
O        -12.37800       65.49800       -0.76100
C        -13.52200       64.70800       -1.17500
H         -1.19400       63.26200        6.82900
H         -2.56300       64.80800        5.51800
H          0.19600       64.34300        2.33100
H          1.45100       62.80600        3.71800
H         -2.74400       66.39000        3.58100
H         -0.90300       65.65500        1.15200
H         -2.07400       67.06000        1.28400
H         -2.76000       64.02800        1.53500
H         -4.85200       63.68000        0.88900
H         -9.30700       62.13300       -0.58900
H        -11.56800       62.94700       -1.02400
H        -10.37700       66.90000        0.07200
H        -14.38600       65.36800       -1.26300
H        -13.69600       63.95700       -0.41100
H        -13.30400       64.23700       -2.13200
