452
1e_active_pm6d3.log	Energy:   -1256.4448107
N         -6.50100       54.51300        5.68700
C         -6.45500       55.98400        5.64500
C         -7.61800       56.50900        4.80500
O         -7.74900       56.17000        3.63100
C         -5.11500       56.50300        5.09600
C         -3.96300       56.38000        6.10400
C         -2.66800       56.94800        5.50200
C         -1.43800       56.49000        6.29400
N         -0.18700       56.72500        5.52600
H         -5.86800       53.98600        5.10000
H         -7.15500       54.03800        6.29200
H         -6.58900       56.36800        6.65600
H         -8.33300       57.18600        5.24800
H         -5.22900       57.55900        4.84000
H         -4.86600       55.95600        4.18500
H         -3.82100       55.32800        6.35500
H         -4.21200       56.93400        7.01000
H         -2.72000       58.04000        5.49800
H         -2.57600       56.59700        4.47200
H         -1.54600       55.42100        6.50400
H         -1.41300       57.02100        7.25100
H         -0.06700       57.70800        5.31600
H         -0.21500       56.22400        4.64300
N        -10.23000       60.21700        3.93300
C        -10.49000       61.64800        3.98000
C        -11.94000       61.87700        4.41200
O        -12.87200       61.43000        3.74200
C        -10.18900       62.25800        2.61400
H        -10.72400       59.67700        3.22600
H         -9.58700       59.77800        4.57600
H         -9.82800       62.12000        4.70600
H        -12.14800       62.43500        5.31300
H        -10.81800       61.79100        1.85600
H         -9.14300       62.09500        2.36000
H        -10.39100       63.32900        2.63700
N        -14.92800       64.43600        5.11000
C        -15.50300       65.76600        4.87400
C        -16.75200       65.93500        5.73400
O        -17.69200       65.15700        5.59900
C        -15.83100       65.94000        3.38400
C        -15.94200       67.42900        3.01100
C        -17.10800       67.69200        2.04200
C        -16.94000       68.96700        1.20400
N        -16.76600       70.15500        2.06300
H        -15.41600       63.62400        4.73400
H        -14.07100       64.32700        5.63300
H        -14.77300       66.52500        5.16100
H        -16.80800       66.73400        6.45800
H        -16.76600       65.42200        3.16300
H        -15.04700       65.48400        2.77500
H        -15.00100       67.73400        2.56100
H        -16.08000       68.04100        3.90200
H        -18.02900       67.76200        2.62400
H        -17.20100       66.85100        1.35400
H        -17.81900       69.09000        0.56300
H        -16.08100       68.85600        0.53700
H        -16.67100       70.97000        1.47300
H        -15.96000       70.01000        2.65700
N        -23.58300       58.00700       -5.62600
C        -22.18100       58.41300       -5.77500
C        -21.21000       57.23400       -5.58900
O        -20.18000       57.18200       -6.25200
C        -21.85200       59.55200       -4.79800
C        -20.88500       60.57500       -5.41100
S        -19.78400       61.40700       -4.23000
C        -20.98500       62.27800       -3.18600
H        -24.11600       58.36500       -4.83800
H        -24.01100       57.38300       -6.29500
H        -22.05400       58.78100       -6.79100
H        -21.43500       56.45400       -4.87600
H        -21.40800       59.12500       -3.90200
H        -22.76000       60.08100       -4.51300
H        -21.47300       61.33100       -5.93300
H        -20.25500       60.07300       -6.14600
H        -20.45600       62.80300       -2.39100
H        -21.68400       61.57000       -2.74200
H        -21.53900       63.00000       -3.78300
N        -12.00000       59.90600       -7.23700
C        -11.86100       59.70000       -5.78500
C        -13.14200       59.06900       -5.24400
O        -14.20700       59.69300       -5.24800
C        -11.50600       60.99200       -5.02900
C        -11.30300       60.70900       -3.53400
C        -10.20500       61.60000       -5.56800
H        -12.17400       60.84400       -7.58600
H        -11.92400       59.12700       -7.87500
H        -11.04300       58.99600       -5.61500
H        -13.11600       58.06300       -4.85200
H        -12.30800       61.72000       -5.14600
H        -10.50900       59.97200       -3.39500
H        -12.22300       60.32500       -3.09300
H        -11.03000       61.62400       -3.01300
H         -9.39900       60.87200       -5.48300
H         -9.94900       62.48700       -4.99400
H        -10.32900       61.88700       -6.61100
N        -19.06500       62.71000        5.32000
C        -18.77600       61.86600        4.16100
C        -17.34900       61.32100        4.28300
O        -16.43100       62.07200        4.62000
C        -18.92900       62.69600        2.86800
C        -20.23400       62.44300        2.09800
C        -21.44700       63.09500        2.74900
C        -20.15100       63.02900        0.69500
H        -18.52700       63.56700        5.38100
H        -19.75400       62.45500        6.01300
H        -19.46000       61.01600        4.13600
H        -17.14700       60.28100        4.07300
H        -18.11000       62.42300        2.20500
H        -18.83000       63.76100        3.08800
H        -20.38900       61.37400        2.00800
H        -21.37100       64.16900        2.63100
H        -21.50700       62.82900        3.80300
H        -22.35400       62.76600        2.24200
H        -19.98700       64.09900        0.75300
H        -21.07500       62.83200        0.15300
H        -19.33300       62.56200        0.15900
N        -14.25800       59.49600        2.19600
C        -13.62800       59.23800        0.90200
C        -12.31500       58.46400        1.04700
O        -11.67200       58.47400        2.10100
C        -13.36200       60.56700        0.17600
C        -14.59900       61.35500       -0.18000
C        -15.09400       62.32700        0.71000
C        -15.23800       61.13500       -1.41400
C        -16.23400       63.07200        0.37200
C        -16.38800       61.86800       -1.74200
C        -16.88600       62.82700       -0.84600
H        -13.78400       60.15600        2.80200
H        -15.11800       59.04200        2.47000
H        -14.29900       58.64300        0.28500
H        -12.81700       60.36400       -0.74600
H        -12.72000       61.18900        0.79700
H        -14.59200       62.50700        1.64900
H        -14.84100       60.41700       -2.11700
H        -16.60400       63.83300        1.04000
H        -16.86800       61.73100       -2.70200
H        -17.74900       63.40800       -1.12500
N        -11.85800       57.90500       -0.07000
C        -10.47400       57.48600       -0.28600
C         -9.51700       58.65700        0.00900
O         -9.67900       59.74600       -0.54200
C        -10.36700       57.01300       -1.74900
C         -8.93200       56.75200       -2.23100
C         -8.81600       56.55600       -3.75100
O         -7.77300       56.01600       -4.18500
O         -9.73200       56.92200       -4.52600
H        -12.45200       57.95900       -0.89300
H        -10.23200       56.65700        0.37900
H        -10.82300       57.77100       -2.38500
H        -10.94400       56.09300       -1.86100
H         -8.55700       55.86200       -1.72000
H         -8.29200       57.59000       -1.95900
H         -9.56600       56.75600       -5.45700
N         -8.50700       58.45000        0.86000
C         -7.48100       59.46500        1.11700
C         -6.45500       59.54100       -0.02200
O         -5.90800       58.52500       -0.44600
C         -6.79900       59.18000        2.45600
C         -5.66100       60.11800        2.79900
C         -5.92300       61.44800        3.17900
C         -4.33400       59.65600        2.72300
C         -4.85500       62.31300        3.47800
C         -3.27200       60.51500        3.04100
C         -3.53400       61.84300        3.40900
H         -8.39100       57.53700        1.27800
H         -7.97000       60.43700        1.18900
H         -6.41900       58.15800        2.44100
H         -7.53800       59.24900        3.24500
H         -6.94000       61.80800        3.24100
H         -4.13200       58.64200        2.40900
H         -5.04700       63.33600        3.76400
H         -2.25100       60.16700        2.98200
H         -2.71200       62.49800        3.63900
N         -6.11000       60.76200       -0.44300
C         -5.13400       61.01900       -1.50600
C         -3.86100       61.62800       -0.90700
O         -3.85300       62.77400       -0.46000
C         -5.75800       61.93100       -2.57000
C         -7.05900       61.37500       -3.17300
S         -6.88800       59.85400       -4.14800
C         -5.89700       60.45600       -5.53900
H         -6.57000       61.56400       -0.03000
H         -4.86500       60.08100       -1.99600
H         -5.03600       62.08900       -3.36800
H         -5.96400       62.89700       -2.11800
H         -7.50000       62.13600       -3.81200
H         -7.77200       61.18700       -2.36900
H         -5.73900       59.64500       -6.24800
H         -4.93100       60.79800       -5.17700
H         -6.40700       61.28200       -6.03200
N         -2.78300       60.85100       -0.84800
C         -1.57300       61.16700       -0.07200
C         -0.76200       62.38900       -0.51200
O         -0.07700       62.96000        0.33000
C         -0.66000       59.93700        0.02800
C         -0.51800       59.13100       -1.27200
C          0.31100       57.86900       -1.04400
O          0.12300       57.23800        0.02600
O          1.12000       57.58700       -1.95000
H         -2.86100       59.91000       -1.20600
H         -1.88700       61.40500        0.94300
H         -1.06900       59.29500        0.80700
H          0.33500       60.25400        0.34800
H         -0.04300       59.75900       -2.02900
H         -1.49800       58.83000       -1.64700
H          1.64600       56.79900       -1.79400
N         -0.88800       62.87300       -1.74900
C         -0.14200       64.05600       -2.19900
C         -1.00000       65.33000       -2.29600
O         -0.50900       66.36600       -2.73800
C          0.63200       63.72200       -3.47800
C          1.70400       62.68400       -3.28100
C          2.87200       62.85800       -2.59000
N          1.68500       61.37800       -3.72600
N          3.57100       61.64900       -2.60900
C          2.80100       60.77700       -3.28200
H         -1.50300       62.41000       -2.40800
H          0.61200       64.29900       -1.45000
H          1.10400       64.62800       -3.85800
H         -0.06200       63.34500       -4.21500
H          0.94800       60.90700       -4.24500
H          3.18400       63.76600       -2.09200
H          3.04200       59.73200       -3.43300
N         -2.25200       65.29500       -1.82000
C         -3.13400       66.46600       -1.78900
C         -3.63500       66.89100       -3.17200
O         -3.73800       66.06700       -4.08300
H         -2.60500       64.41200       -1.47500
H         -2.59700       67.30400       -1.34200
H         -4.00200       66.24800       -1.16900
H         -3.90100       67.92300       -3.35100
N         -7.01600       65.52200       -7.37800
C         -6.11600       65.09200       -6.30100
C         -5.04700       64.11100       -6.79400
O         -5.29900       63.31400       -7.69400
C         -6.94100       64.49600       -5.15000
C         -7.63000       65.56200       -4.26900
C         -9.11800       65.27100       -4.11000
C         -7.03900       65.58100       -2.86400
H         -7.50700       64.79500       -7.89300
H         -7.14300       66.49900       -7.59800
H         -5.57400       65.95300       -5.91800
H         -4.06400       64.12000       -6.34600
H         -6.26800       63.90700       -4.52900
H         -7.68100       63.81100       -5.56800
H         -7.51300       66.55100       -4.71000
H         -9.26300       64.29600       -3.64300
H         -9.57300       65.28600       -5.09600
H         -9.57800       66.04200       -3.49200
H         -7.24700       64.63800       -2.36700
H         -7.47500       66.39500       -2.28900
H         -5.96600       65.71800       -2.91700
N        -12.23900       64.69000       -8.48800
C        -13.02700       64.74100       -7.26100
C        -14.06600       65.86200       -7.33400
O        -14.01500       66.68800       -8.24600
C        -12.05000       64.93000       -6.10300
O        -12.65200       64.70400       -4.86600
H        -11.99700       65.57900       -8.90400
H        -11.95100       63.81400       -8.90000
H        -13.55200       63.79800       -7.12000
H        -11.66400       65.94200       -6.10400
H        -11.22900       64.22200       -6.21100
H        -12.05000       64.99800       -4.17500
N        -15.00600       65.88100       -6.39000
C        -15.95500       66.98600       -6.14500
C        -16.90400       67.25100       -7.33000
O        -17.08300       68.37800       -7.76700
C        -15.18700       68.21500       -5.59600
C        -16.01000       69.11900       -4.66700
O        -16.18800       68.72800       -3.48700
O        -16.37400       70.23300       -5.09000
H        -14.96400       65.12900       -5.71300
H        -16.61000       66.66000       -5.33900
H        -14.78400       68.79400       -6.42900
H        -14.33500       67.86400       -5.01000
H        -16.81000       70.79100       -4.44200
N        -17.50200       66.18200       -7.88100
C        -18.45000       66.26300       -9.01100
C        -19.92400       66.26000       -8.57900
O        -20.72000       67.07400       -9.03800
C        -18.18900       65.14900      -10.04900
C        -17.61000       63.83000       -9.56000
C        -18.44600       62.72400       -9.31400
C        -16.21600       63.69000       -9.42400
C        -17.89100       61.49300       -8.91800
C        -15.66200       62.46000       -9.02900
C        -16.50100       61.36400       -8.76900
H        -17.26300       65.27600       -7.51000
H        -18.29600       67.21700       -9.52500
H        -20.26500       65.53000       -7.86000
H        -17.50600       65.54200      -10.79100
H        -19.11600       64.94500      -10.58600
H        -19.51400       62.80900       -9.44700
H        -15.57100       64.53200       -9.62800
H        -18.52800       60.63900       -8.73200
H        -14.59300       62.35300       -8.92300
H        -16.08000       60.41800       -8.45600
N        -21.30700       66.72200       -5.42100
C        -21.33200       67.21600       -4.03400
C        -22.45700       68.21100       -3.73100
O        -22.62700       68.61800       -2.58700
C        -19.96500       67.82700       -3.68500
C        -18.89500       66.74300       -3.55600
S        -19.24000       65.48200       -2.29700
C        -19.09700       66.48700       -0.80700
H        -20.77200       67.24300       -6.10100
H        -21.81100       65.88800       -5.68400
H        -21.51600       66.37300       -3.36800
H        -23.10100       68.55400       -4.52700
H        -20.03100       68.35800       -2.73600
H        -19.67200       68.54500       -4.45200
H        -17.95600       67.22300       -3.30000
H        -18.76400       66.25700       -4.52300
H        -19.10500       65.84100        0.06500
H        -19.93700       67.17800       -0.75800
H        -18.16100       67.04100       -0.83400
N         -6.18800       64.63300       12.10600
C         -5.75500       66.00900       11.83800
C         -6.52900       66.61800       10.66200
O         -6.93600       65.89500        9.75000
C         -4.23400       66.04500       11.56000
C         -3.79800       65.15300       10.38500
C         -2.28500       65.07700       10.22900
O         -1.64000       64.13100       10.64700
N         -1.66500       66.04300        9.58800
H         -6.61800       64.12900       11.34100
H         -6.06300       64.20700       13.01400
H         -5.95800       66.61600       12.72200
H         -6.71800       67.68100       10.63300
H         -3.70800       65.72000       12.45900
H         -3.93500       67.07300       11.35200
H         -4.22500       65.53300        9.45800
H         -4.16300       64.14200       10.55000
H         -0.66700       65.95600        9.50500
H         -2.18500       66.81800        9.21200
N         -6.82700       68.61500        7.05200
C         -6.10900       68.60300        5.76100
C         -6.72700       69.54500        4.71100
O         -6.00100       70.11500        3.90100
C         -5.98200       67.16200        5.19100
C         -7.33900       66.42600        5.09500
C         -4.97100       66.34300        6.01200
C         -7.28800       65.06100        4.39900
H         -7.83900       68.67100        7.04300
H         -6.32100       68.57000        7.92400
H         -5.09900       68.97900        5.92900
H         -7.79500       69.70300        4.68600
H         -5.57700       67.24700        4.18200
H         -8.03100       67.04500        4.53300
H         -7.74100       66.28400        6.09600
H         -5.35000       66.17000        7.02000
H         -4.02800       66.88700        6.07800
H         -4.78600       65.38500        5.53300
H         -6.84600       65.17200        3.41200
H         -8.29600       64.66300        4.29200
H         -6.70600       64.35300        4.98500
N        -11.86800       69.26700        6.01400
C        -11.58000       67.85000        5.73700
C        -10.55000       67.36600        6.75200
O         -9.63500       68.11700        7.08900
C        -11.05300       67.61200        4.30300
C        -11.00400       66.12300        3.93200
C        -11.89100       68.31500        3.22900
H        -11.07200       69.87100        6.17900
H        -12.81400       69.62000        6.03800
H        -12.49400       67.27600        5.86200
H        -10.62300       66.37300        7.17000
H        -10.04300       68.00300        4.23900
H        -12.00500       65.69200        3.95100
H        -10.37100       65.57600        4.62600
H        -10.57700       66.00200        2.93600
H        -12.90300       67.92000        3.24800
H        -11.44000       68.14700        2.25100
H        -11.90900       69.38600        3.41000
N         -7.78700       64.00300        7.80000
C         -7.17200       62.67700        7.72400
C         -7.76200       61.85800        8.87400
O         -7.75600       62.29900       10.02900
C         -5.63400       62.78400        7.82200
C         -4.89000       61.44600        8.06000
C         -4.71700       60.63100        6.77700
C         -3.50000       61.69000        8.64600
H         -7.35100       64.67500        8.42500
H         -8.60500       64.23900        7.25600
H         -7.43500       62.20400        6.77500
H         -8.18700       60.88500        8.67500
H         -5.40600       63.45100        8.65100
H         -5.25300       63.24500        6.91000
H         -5.42800       60.83500        8.78200
H         -4.10500       61.18300        6.06500
H         -5.69000       60.42500        6.33200
H         -4.23200       59.68400        7.00800
H         -2.91400       62.31400        7.97700
H         -2.99100       60.74200        8.81300
H         -3.59400       62.19000        9.60900
O        -15.14500       62.49600       -5.72800
H        -14.79300       61.69900       -5.33000
H        -16.02500       62.25300       -6.01500
C          0.36200       61.20700        7.16300
O          0.89200       61.96200        6.04500
C          0.17100       62.91100        5.34500
C         -0.96200       63.52000        5.88300
C         -1.70200       64.40400        5.10100
C         -1.31900       64.70300        3.79000
C         -0.14400       64.12600        3.29200
C          0.59800       63.23400        4.06300
C         -2.21500       65.65100        2.98400
C         -1.80400       66.05300        1.58300
C         -2.93100       65.06400        1.79300
C         -4.34100       65.56600        1.47600
O         -4.67600       66.72700        1.56000
N         -5.23500       64.62400        1.05100
C         -6.58400       64.74300        0.70800
N         -7.21400       63.67000        0.32900
C         -8.52300       63.99000        0.03100
C         -9.50500       63.10100       -0.43100
C        -10.79900       63.53900       -0.65000
C        -11.15900       64.89200       -0.44800
C        -10.17500       65.79100       -0.02700
C         -8.87300       65.32500        0.21700
S         -7.50100       66.21900        0.76000
C        -12.53600       65.32700       -0.68900
C        -13.26200       64.86500       -1.79500
C        -14.53300       65.35900       -2.08500
C        -15.11000       66.30100       -1.24400
C        -14.42000       66.72800       -0.12000
C        -13.15300       66.24200        0.16500
C        -15.20400       64.98000       -3.38300
O        -16.52300       64.53000       -3.14300
H        -14.85000       67.44400        0.50600
H         -0.71900       61.14100        7.05700
H          0.63600       61.71000        8.09100
H          0.80200       60.21200        7.12500
H         -1.25600       63.32000        6.87800
H         -2.56800       64.85200        5.50900
H          0.20400       64.35400        2.32100
H          1.48000       62.79500        3.67200
H         -2.72600       66.38900        3.58800
H         -0.90000       65.65400        1.14900
H         -2.06800       67.06000        1.29000
H         -2.75300       64.02900        1.54100
H         -4.83800       63.68400        0.88600
H         -9.25100       62.08900       -0.59700
H        -11.53700       62.84600       -0.96700
H        -10.40000       66.81800        0.10200
H        -12.82600       64.14900       -2.43900
H        -14.67100       64.17400       -3.85600
H        -15.25000       65.89200       -3.94700
H        -16.05800       66.71200       -1.48000
H        -12.64700       66.57200        1.03100
H        -16.96700       65.10600       -2.50200
