360
1f_active_pm6d3.log	Energy:   -1007.8837927
N        -10.23300       60.21700        3.93400
C        -10.49100       61.64800        3.98000
C        -11.94100       61.87900        4.41100
O        -12.87400       61.44000        3.73500
C        -10.19000       62.25600        2.61300
H        -10.72600       59.67700        3.22600
H         -9.59000       59.77700        4.57700
H         -9.82800       62.12000        4.70600
H        -12.14900       62.43100        5.31500
H        -10.82000       61.78900        1.85600
H         -9.14500       62.09200        2.35800
H        -10.39000       63.32700        2.63700
N        -14.93200       64.43100        5.11900
C        -15.50000       65.76100        4.86200
C        -16.75500       65.94200        5.71200
O        -17.69800       65.16600        5.57900
C        -15.81100       65.90400        3.36400
C        -15.87500       67.37700        2.93300
C        -17.06000       67.64600        1.99500
C        -16.83300       68.88400        1.12500
N        -16.68100       70.09400        1.95900
H        -15.42000       63.61900        4.74500
H        -14.08100       64.32500        5.65300
H        -14.77100       66.52200        5.14400
H        -16.81400       66.75000        6.42700
H        -16.75600       65.40300        3.14900
H        -15.03500       65.41100        2.77500
H        -14.94700       67.61900        2.41800
H        -15.95500       68.03100        3.80400
H        -17.96700       67.76900        2.59100
H        -17.19100       66.79400        1.32900
H        -17.68100       69.00300        0.44500
H        -15.93900       68.71900        0.51100
H        -16.56000       70.89000        1.34900
H        -15.89400       69.95300        2.57800
N        -11.99300       59.90100       -7.23900
C        -11.85600       59.69600       -5.78700
C        -13.14000       59.06700       -5.24900
O        -14.20200       59.69700       -5.25300
C        -11.50200       60.98900       -5.03100
C        -11.30300       60.70700       -3.53500
C        -10.20200       61.59600       -5.56900
H        -12.16000       60.84000       -7.59000
H        -11.92200       59.12100       -7.87700
H        -11.03900       58.99100       -5.61600
H        -13.11800       58.06000       -4.85900
H        -12.30500       61.71600       -5.15000
H        -10.50700       59.97300       -3.39400
H        -12.22200       60.32100       -3.09600
H        -11.03200       61.62300       -3.01400
H         -9.39500       60.86800       -5.48500
H         -9.94400       62.48200       -4.99400
H        -10.32400       61.88500       -6.61200
N        -14.27000       59.51300        2.18500
C        -13.64100       59.25300        0.89000
C        -12.32600       58.47900        1.03900
O        -11.68600       58.49100        2.09400
C        -13.37600       60.58000        0.16000
C        -14.60400       61.37900       -0.21700
C        -15.10600       62.35300        0.66500
C        -15.21600       61.18100       -1.47000
C        -16.22100       63.12500        0.29800
C        -16.33400       61.95000       -1.83400
C        -16.83200       62.91800       -0.94900
H        -13.79400       60.17200        2.79100
H        -15.13100       59.06100        2.45900
H        -14.31100       58.65400        0.27600
H        -12.82100       60.37200       -0.75500
H        -12.73600       61.20200        0.78400
H        -14.63200       62.51200        1.62300
H        -14.82300       60.44700       -2.15900
H        -16.60400       63.87600        0.97200
H        -16.80600       61.80500       -2.79600
H        -17.69100       63.50200       -1.23000
N        -11.86600       57.91800       -0.07700
C        -10.48100       57.49500       -0.28800
C         -9.52400       58.66600        0.00900
O         -9.68700       59.75800       -0.53600
C        -10.36900       57.01700       -1.75000
C         -8.93300       56.75300       -2.22700
C         -8.81200       56.55200       -3.74600
O         -7.76800       56.01100       -4.17800
O         -9.72500       56.91600       -4.52500
H        -12.45800       57.96800       -0.90100
H        -10.24300       56.66800        0.38000
H        -10.82200       57.77400       -2.39000
H        -10.94700       56.09800       -1.86000
H         -8.55900       55.86500       -1.71300
H         -8.29300       57.59200       -1.95600
H         -9.55600       56.74800       -5.45500
N         -8.51100       58.45400        0.85700
C         -7.48400       59.46700        1.11500
C         -6.45800       59.54300       -0.02300
O         -5.91100       58.52600       -0.44800
C         -6.80200       59.18000        2.45400
C         -5.66400       60.11700        2.79700
C         -5.92500       61.44700        3.17800
C         -4.33700       59.65500        2.72000
C         -4.85700       62.31100        3.47700
C         -3.27400       60.51300        3.03800
C         -3.53600       61.84100        3.40800
H         -8.39400       57.53900        1.27000
H         -7.97000       60.44000        1.18800
H         -6.42300       58.15800        2.43800
H         -7.54100       59.24900        3.24300
H         -6.94200       61.80700        3.24100
H         -4.13500       58.64000        2.40600
H         -5.04800       63.33400        3.76500
H         -2.25400       60.16400        2.97900
H         -2.71300       62.49500        3.64000
N         -6.11300       60.76400       -0.44400
C         -5.13600       61.02000       -1.50800
C         -3.86300       61.62900       -0.90800
O         -3.85700       62.77400       -0.45800
C         -5.76000       61.93200       -2.57200
C         -7.06100       61.37600       -3.17400
S         -6.89000       59.85500       -4.14900
C         -5.89600       60.45600       -5.53800
H         -6.57100       61.56500       -0.03000
H         -4.86700       60.08200       -1.99700
H         -5.03800       62.09000       -3.36900
H         -5.96600       62.89800       -2.11900
H         -7.50200       62.13700       -3.81300
H         -7.77400       61.18900       -2.37000
H         -5.73800       59.64500       -6.24700
H         -4.93100       60.79700       -5.17500
H         -6.40500       61.28200       -6.03300
N         -2.78400       60.85300       -0.85200
C         -1.57400       61.16800       -0.07500
C         -0.76000       62.38700       -0.51500
O         -0.06500       62.95000        0.32500
C         -0.66300       59.93600        0.02800
C         -0.51900       59.13000       -1.27200
C          0.31200       57.87000       -1.04200
O          0.13000       57.24300        0.03200
O          1.11900       57.58600       -1.94900
H         -2.86100       59.91200       -1.21300
H         -1.88900       61.40800        0.93900
H         -1.07500       59.29500        0.80600
H          0.33100       60.25200        0.35100
H         -0.04300       59.75900       -2.02800
H         -1.49800       58.82800       -1.64700
H          1.64800       56.80000       -1.79100
N         -0.88900       62.87400       -1.75000
C         -0.14200       64.05700       -2.20100
C         -1.00200       65.33000       -2.30000
O         -0.51300       66.36600       -2.74600
C          0.63300       63.72200       -3.47900
C          1.70400       62.68400       -3.28100
C          2.87300       62.86000       -2.59200
N          1.68600       61.37900       -3.72500
N          3.57200       61.65100       -2.61000
C          2.80200       60.77800       -3.28200
H         -1.50700       62.41500       -2.40900
H          0.61100       64.30200       -1.45100
H          1.10500       64.62900       -3.85900
H         -0.06100       63.34500       -4.21600
H          0.94800       60.90700       -4.24400
H          3.18600       63.76800       -2.09500
H          3.04300       59.73200       -3.43200
N         -2.25300       65.29500       -1.82300
C         -3.13600       66.46500       -1.79000
C         -3.63900       66.88900       -3.17300
O         -3.74300       66.06500       -4.08400
H         -2.60500       64.41200       -1.47600
H         -2.59900       67.30300       -1.34400
H         -4.00300       66.24500       -1.16900
H         -3.90500       67.92100       -3.35200
N         -7.01700       65.52000       -7.37600
C         -6.11600       65.09200       -6.30000
C         -5.04700       64.11100       -6.79400
O         -5.29800       63.31400       -7.69500
C         -6.94100       64.49500       -5.14900
C         -7.63300       65.56000       -4.27100
C         -9.12200       65.26800       -4.11500
C         -7.04400       65.58000       -2.86400
H         -7.50900       64.79300       -7.88900
H         -7.14300       66.49700       -7.59800
H         -5.57400       65.95300       -5.91700
H         -4.06400       64.12000       -6.34600
H         -6.26700       63.90800       -4.52700
H         -7.67900       63.80800       -5.56800
H         -7.51600       66.54900       -4.71200
H         -9.26600       64.29500       -3.64500
H         -9.57900       65.28000       -5.10100
H         -9.58400       66.03900       -3.49800
H         -7.25200       64.63700       -2.36700
H         -7.48100       66.39500       -2.29000
H         -5.97100       65.71800       -2.91600
N        -12.24500       64.68500       -8.44500
C        -13.05900       64.71900       -7.22900
C        -14.10500       65.83400       -7.29400
O        -14.08600       66.63600       -8.23000
C        -12.12500       64.89900       -6.03500
O        -12.80600       64.67500       -4.82900
H        -12.00000       65.57800       -8.84900
H        -11.94400       63.81400       -8.85800
H        -13.58700       63.77400       -7.10900
H        -11.72000       65.90700       -6.03100
H        -11.30900       64.18000       -6.11100
H        -12.25200       64.99600       -4.11200
N        -15.00900       65.87400       -6.31300
C        -15.95400       66.97700       -6.07200
C        -16.91200       67.23500       -7.26300
O        -17.10600       68.36300       -7.69100
C        -15.17700       68.21100       -5.55400
C        -15.99100       69.14200       -4.64400
O        -16.15700       68.78500       -3.45100
O        -16.36000       70.24200       -5.09700
H        -14.91400       65.16200       -5.59700
H        -16.58800       66.65400       -5.24900
H        -17.41900       66.40000       -7.72300
H        -14.77300       68.77000       -6.40000
H        -14.32700       67.86500       -4.96300
H        -16.79100       70.81900       -4.46200
N        -21.29900       66.71400       -5.41600
C        -21.31600       67.20400       -4.02800
C        -22.44900       68.19200       -3.72400
O        -22.62600       68.59100       -2.57800
C        -19.95500       67.83100       -3.69300
C        -18.84300       66.78100       -3.63000
S        -19.07200       65.45200       -2.42300
C        -19.04600       66.42000       -0.89400
H        -20.76800       67.23800       -6.09800
H        -21.80300       65.88000       -5.68000
H        -21.48100       66.35900       -3.35900
H        -23.09100       68.53800       -4.52000
H        -20.01100       68.33400       -2.72700
H        -19.70000       68.58100       -4.44400
H        -17.92000       67.28800       -3.37700
H        -18.72300       66.33700       -4.61700
H        -19.03100       65.75100       -0.03900
H        -19.93200       67.05200       -0.84200
H        -18.15200       67.03900       -0.87400
N         -6.18900       64.63300       12.10700
C         -5.75700       66.01000       11.84000
C         -6.53100       66.61900       10.66400
O         -6.94100       65.89600        9.75300
C         -4.23700       66.04800       11.56300
C         -3.79800       65.15600       10.38800
C         -2.28500       65.08500       10.23700
O         -1.63700       64.15100       10.67500
N         -1.66600       66.04600        9.58700
H         -6.61600       64.12900       11.34100
H         -6.06500       64.20700       13.01400
H         -5.96100       66.61600       12.72400
H         -6.71700       67.68300       10.63400
H         -3.71000       65.72400       12.46200
H         -3.93900       67.07600       11.35500
H         -4.22500       65.53500        9.46000
H         -4.16100       64.14500       10.55300
H         -0.66800       65.96200        9.50900
H         -2.18900       66.81400        9.20000
N         -6.82700       68.61700        7.05300
C         -6.10900       68.60400        5.76200
C         -6.72600       69.54600        4.71100
O         -6.00100       70.11500        3.90100
C         -5.98200       67.16400        5.19200
C         -7.33900       66.42700        5.09700
C         -4.97200       66.34400        6.01300
C         -7.28800       65.06200        4.40000
H         -7.83900       68.67200        7.04400
H         -6.32100       68.57100        7.92500
H         -5.09900       68.98000        5.93000
H         -7.79400       69.70600        4.68900
H         -5.57700       67.24800        4.18300
H         -8.03100       67.04600        4.53400
H         -7.74100       66.28400        6.09700
H         -5.34900       66.17200        7.02100
H         -4.02800       66.88700        6.07800
H         -4.78700       65.38500        5.53400
H         -6.84600       65.17400        3.41300
H         -8.29600       64.66400        4.29300
H         -6.70600       64.35400        4.98600
N        -11.86700       69.26800        6.01300
C        -11.57900       67.85100        5.73800
C        -10.55000       67.36700        6.75400
O         -9.63400       68.11800        7.09300
C        -11.05300       67.61200        4.30400
C        -11.00400       66.12300        3.93400
C        -11.89300       68.31400        3.23100
H        -11.07100       69.87400        6.16900
H        -12.81400       69.61800        6.04500
H        -12.49300       67.27700        5.86300
H        -10.62300       66.37400        7.17300
H        -10.04300       68.00300        4.23900
H        -12.00500       65.69200        3.95300
H        -10.37200       65.57600        4.63000
H        -10.57600       66.00100        2.93900
H        -12.90600       67.92500        3.25400
H        -11.44600       68.14300        2.25100
H        -11.90700       69.38600        3.40900
N         -7.78600       64.00300        7.80200
C         -7.17200       62.67800        7.72500
C         -7.76200       61.85800        8.87500
O         -7.76100       62.30000       10.03000
C         -5.63400       62.78500        7.82300
C         -4.89000       61.44700        8.06000
C         -4.72000       60.63100        6.77800
C         -3.50000       61.69200        8.64500
H         -7.35000       64.67600        8.42700
H         -8.60500       64.23900        7.25900
H         -7.43400       62.20500        6.77600
H         -8.18300       60.88300        8.67600
H         -5.40600       63.45200        8.65200
H         -5.25300       63.24600        6.91100
H         -5.42700       60.83700        8.78300
H         -4.10800       61.18200        6.06500
H         -5.69400       60.42500        6.33400
H         -4.23400       59.68400        7.00900
H         -2.91100       62.31100        7.97300
H         -2.99100       60.74400        8.81400
H         -3.59100       62.19500        9.60600
O        -15.29400       62.59800       -5.59400
H        -14.84300       61.84600       -5.21000
H        -15.94200       62.21300       -6.18400
C          0.22600       62.98100        5.36800
C         -0.93400       63.54600        5.88200
C         -1.70500       64.39800        5.09500
C         -1.33100       64.70000        3.78300
C         -0.15200       64.13600        3.28600
C          0.61700       63.27900        4.06800
C         -2.23600       65.64200        2.97900
C         -1.82300       66.04900        1.58000
C         -2.94900       65.05800        1.78600
C         -4.35900       65.56300        1.47200
O         -4.69200       66.72500        1.55800
N         -5.25800       64.62400        1.04500
C         -6.60900       64.75200        0.70700
N         -7.24800       63.68500        0.32600
C         -8.55800       64.01400        0.03600
C         -9.54800       63.13400       -0.42500
C        -10.84000       63.58400       -0.64000
C        -11.19300       64.94100       -0.43500
C        -10.20100       65.82900       -0.01000
C         -8.90000       65.35100        0.22700
S         -7.51800       66.23300        0.76800
C        -12.56900       65.38900       -0.69200
C        -13.27800       64.91700       -1.79700
C        -14.53800       65.43000       -2.05800
C        -15.09000       66.37300       -1.19900
N        -14.44200       66.78900       -0.10100
C        -13.21700       66.30700        0.14800
H          0.81600       62.33500        5.96600
H         -1.22700       63.33300        6.87800
H         -2.58400       64.82200        5.50200
H          0.18300       64.35200        2.30800
H          1.50600       62.86000        3.66800
H         -2.74600       66.37900        3.58500
H         -0.91800       65.65200        1.14500
H         -2.08600       67.05800        1.29200
H         -2.77200       64.02400        1.53300
H         -4.86200       63.68400        0.87800
H         -9.30200       62.12100       -0.59500
H        -11.58100       62.89400       -0.96000
H        -10.41400       66.85800        0.12200
H        -12.86200       64.18000       -2.43100
H        -15.08300       65.10700       -2.90900
H        -16.04900       66.77500       -1.41300
H        -12.72600       66.64200        1.02200
