360
1g_active_pm6d3.log	Energy:   -1003.9515402
N        -10.23400       60.21800        3.93100
C        -10.49200       61.65000        3.97600
C        -11.94300       61.88100        4.40600
O        -12.87600       61.44400        3.73000
C        -10.19000       62.25700        2.60800
H        -10.72700       59.67700        3.22400
H         -9.59200       59.78000        4.57500
H         -9.83000       62.12100        4.70200
H        -12.15100       62.43300        5.31100
H        -10.81900       61.79000        1.85100
H         -9.14500       62.09300        2.35600
H        -10.39000       63.32800        2.63200
N        -14.93200       64.43700        5.11000
C        -15.50400       65.76800        4.86700
C        -16.75400       65.94000        5.72600
O        -17.69500       65.16200        5.59200
C        -15.82800       65.93200        3.37400
C        -15.92500       67.41600        2.97700
C        -17.10100       67.67700        2.01900
C        -16.93500       68.94400        1.17100
N        -16.76800       70.14000        2.02100
H        -15.42200       63.62500        4.73600
H        -14.07500       64.32900        5.63300
H        -14.77400       66.52700        5.15400
H        -16.81100       66.74200        6.44700
H        -16.76600       65.41800        3.15600
H        -15.04700       65.46200        2.77200
H        -14.98900       67.70000        2.50400
H        -16.04300       68.04300        3.86100
H        -18.01600       67.75400        2.60900
H        -17.20400       66.83300        1.33700
H        -17.81200       69.05700        0.52600
H        -16.07400       68.82700        0.50600
H        -16.67500       70.94900        1.42300
H        -15.96600       70.00600        2.62100
N        -11.99600       59.90200       -7.23700
C        -11.85800       59.69700       -5.78500
C        -13.14100       59.07100       -5.24400
O        -14.20300       59.70200       -5.24700
C        -11.50200       60.99000       -5.03000
C        -11.29900       60.70700       -3.53500
C        -10.20100       61.59700       -5.56900
H        -12.16400       60.84100       -7.58800
H        -11.92500       59.12200       -7.87500
H        -11.04200       58.99200       -5.61500
H        -13.12000       58.06400       -4.85400
H        -12.30400       61.71800       -5.14700
H        -10.50600       59.97000       -3.39600
H        -12.21800       60.32300       -3.09400
H        -11.02400       61.62200       -3.01500
H         -9.39500       60.86900       -5.48600
H         -9.94200       62.48300       -4.99400
H        -10.32500       61.88700       -6.61100
N        -14.27000       59.51100        2.18400
C        -13.64100       59.24900        0.89000
C        -12.32600       58.47600        1.03900
O        -11.68600       58.49100        2.09400
C        -13.37600       60.57600        0.15900
C        -14.60500       61.37400       -0.21800
C        -15.10800       62.34700        0.66500
C        -15.21500       61.17800       -1.47200
C        -16.22100       63.11900        0.29700
C        -16.33200       61.94800       -1.83700
C        -16.83000       62.91700       -0.95200
H        -13.79500       60.17100        2.78900
H        -15.13000       59.05900        2.45900
H        -14.31100       58.65000        0.27600
H        -12.82100       60.36800       -0.75600
H        -12.73600       61.19900        0.78200
H        -14.63400       62.50600        1.62400
H        -14.82200       60.44400       -2.16100
H        -16.60400       63.87300        0.96800
H        -16.80300       61.80600       -2.80000
H        -17.68200       63.50900       -1.23600
N        -11.86600       57.91400       -0.07600
C        -10.48100       57.49100       -0.28700
C         -9.52400       58.66200        0.01000
O         -9.69000       59.75200       -0.53700
C        -10.36900       57.01500       -1.74900
C         -8.93200       56.75200       -2.22800
C         -8.81100       56.55200       -3.74600
O         -7.76600       56.01300       -4.17800
O         -9.72500       56.91500       -4.52500
H        -12.45800       57.96400       -0.90000
H        -10.24200       56.66300        0.38100
H        -10.82200       57.77200       -2.38800
H        -10.94600       56.09500       -1.86100
H         -8.55800       55.86300       -1.71400
H         -8.29300       57.59100       -1.95500
H         -9.55600       56.74700       -5.45500
N         -8.51000       58.45200        0.85700
C         -7.48400       59.46700        1.11400
C         -6.45700       59.54200       -0.02500
O         -5.91300       58.52500       -0.45100
C         -6.80100       59.18000        2.45300
C         -5.66400       60.11800        2.79600
C         -5.92500       61.44800        3.17600
C         -4.33700       59.65600        2.72000
C         -4.85700       62.31200        3.47600
C         -3.27400       60.51500        3.03800
C         -3.53600       61.84200        3.40800
H         -8.39200       57.53700        1.27100
H         -7.97100       60.43900        1.18600
H         -6.42200       58.15800        2.43800
H         -7.54100       59.25000        3.24200
H         -6.94200       61.80800        3.23900
H         -4.13500       58.64100        2.40700
H         -5.04800       63.33500        3.76400
H         -2.25300       60.16500        2.98000
H         -2.71300       62.49700        3.64000
N         -6.10900       60.76300       -0.44400
C         -5.13400       61.01900       -1.50900
C         -3.86000       61.62800       -0.91100
O         -3.85100       62.77400       -0.46400
C         -5.75800       61.93100       -2.57200
C         -7.05900       61.37500       -3.17400
S         -6.88900       59.85400       -4.15000
C         -5.89600       60.45600       -5.53900
H         -6.56400       61.56500       -0.02700
H         -4.86600       60.08100       -1.99800
H         -5.03700       62.08900       -3.37000
H         -5.96400       62.89700       -2.11900
H         -7.50100       62.13700       -3.81300
H         -7.77200       61.18700       -2.37000
H         -5.73800       59.64500       -6.24900
H         -4.93000       60.79700       -5.17600
H         -6.40500       61.28200       -6.03300
N         -2.78300       60.85100       -0.85200
C         -1.57300       61.16600       -0.07500
C         -0.75900       62.38600       -0.51500
O         -0.06600       62.95100        0.32600
C         -0.66200       59.93600        0.02900
C         -0.51800       59.12900       -1.27100
C          0.31300       57.86900       -1.04100
O          0.13100       57.24200        0.03200
O          1.12100       57.58600       -1.94900
H         -2.86000       59.90900       -1.21100
H         -1.88800       61.40600        0.93900
H         -1.07300       59.29400        0.80700
H          0.33300       60.25100        0.35000
H         -0.04300       59.75800       -2.02800
H         -1.49700       58.82700       -1.64600
H          1.65000       56.80000       -1.79000
N         -0.88800       62.87400       -1.75000
C         -0.14200       64.05700       -2.20000
C         -1.00200       65.33000       -2.29900
O         -0.51200       66.36500       -2.74400
C          0.63300       63.72200       -3.47900
C          1.70400       62.68500       -3.28200
C          2.87300       62.86000       -2.59200
N          1.68600       61.37900       -3.72600
N          3.57200       61.65100       -2.61000
C          2.80200       60.77800       -3.28200
H         -1.50500       62.41300       -2.40900
H          0.61200       64.30100       -1.45100
H          1.10400       64.62900       -3.85900
H         -0.06200       63.34500       -4.21600
H          0.94800       60.90700       -4.24500
H          3.18500       63.76800       -2.09500
H          3.04300       59.73200       -3.43300
N         -2.25300       65.29400       -1.82300
C         -3.13600       66.46400       -1.79000
C         -3.63700       66.88900       -3.17300
O         -3.74100       66.06600       -4.08500
H         -2.60600       64.41100       -1.47700
H         -2.60000       67.30200       -1.34400
H         -4.00300       66.24500       -1.17000
H         -3.90400       67.92100       -3.35200
N         -7.01600       65.52100       -7.37800
C         -6.11500       65.09300       -6.30200
C         -5.04600       64.11200       -6.79500
O         -5.29700       63.31600       -7.69600
C         -6.93900       64.49500       -5.15200
C         -7.63200       65.56000       -4.27300
C         -9.12000       65.26700       -4.11500
C         -7.04100       65.58100       -2.86800
H         -7.50800       64.79400       -7.89100
H         -7.14300       66.49900       -7.59900
H         -5.57400       65.95500       -5.91900
H         -4.06300       64.12100       -6.34700
H         -6.26700       63.90800       -4.52900
H         -7.67800       63.80900       -5.57100
H         -7.51700       66.54900       -4.71500
H         -9.26300       64.29400       -3.64400
H         -9.57800       65.27900       -5.10100
H         -9.58200       66.03900       -3.49900
H         -7.24700       64.63900       -2.37000
H         -7.47700       66.39600       -2.29400
H         -5.96800       65.72000       -2.92100
N        -12.25100       64.68300       -8.43900
C        -13.06500       64.71700       -7.22100
C        -14.11300       65.83100       -7.28900
O        -14.09800       66.62400       -8.23200
C        -12.12900       64.90100       -6.03000
O        -12.80200       64.69500       -4.81600
H        -12.00700       65.57700       -8.84200
H        -11.95000       63.81200       -8.85300
H        -13.59100       63.77100       -7.10000
H        -11.71800       65.90600       -6.03600
H        -11.31600       64.17800       -6.10300
H        -12.23000       65.00800       -4.10900
N        -15.01400       65.88000       -6.30500
C        -15.95400       66.99100       -6.06800
C        -16.91900       67.24100       -7.25300
O        -17.12900       68.36900       -7.67500
C        -15.16100       68.22500       -5.57500
C        -15.97200       69.25100       -4.76900
O        -16.30800       68.95000       -3.59900
O        -16.13300       70.38300       -5.26500
H        -14.91500       65.17800       -5.58000
H        -16.58100       66.68400       -5.23300
H        -17.41600       66.40200       -7.71700
H        -14.69900       68.71700       -6.43300
H        -14.35400       67.88200       -4.92500
H        -16.54100       71.02800       -4.68100
N        -21.29700       66.71400       -5.41500
C        -21.31400       67.20600       -4.02800
C        -22.44400       68.19800       -3.72500
O        -22.61900       68.60100       -2.58000
C        -19.94800       67.82600       -3.69100
C        -18.84200       66.76900       -3.63100
S        -19.10000       65.43400       -2.43700
C        -18.97900       66.39200       -0.90800
H        -20.76000       67.23200       -6.09500
H        -21.80800       65.88400       -5.67900
H        -21.48400       66.36200       -3.35900
H        -23.08700       68.54200       -4.52100
H        -20.00200       68.32600       -2.72400
H        -19.68900       68.57600       -4.44000
H        -17.91200       67.26400       -3.36700
H        -18.71900       66.33200       -4.62100
H        -18.98500       65.72000       -0.05500
H        -19.82600       67.07500       -0.83500
H        -18.04500       66.95200       -0.91000
N         -6.18900       64.63300       12.10700
C         -5.75800       66.01000       11.84000
C         -6.53200       66.61900       10.66300
O         -6.94200       65.89600        9.75300
C         -4.23800       66.04800       11.56300
C         -3.79900       65.15600       10.38800
C         -2.28600       65.08500       10.23800
O         -1.63700       64.15100       10.67500
N         -1.66700       66.04600        9.58700
H         -6.61700       64.12900       11.34100
H         -6.06500       64.20800       13.01500
H         -5.96200       66.61700       12.72300
H         -6.71800       67.68200       10.63300
H         -3.71100       65.72400       12.46200
H         -3.94000       67.07600       11.35500
H         -4.22500       65.53500        9.46000
H         -4.16100       64.14500       10.55300
H         -0.66900       65.96200        9.51000
H         -2.18900       66.81400        9.20000
N         -6.82900       68.61600        7.05100
C         -6.11000       68.60300        5.76000
C         -6.72800       69.54500        4.71000
O         -6.00200       70.11500        3.90000
C         -5.98300       67.16300        5.19100
C         -7.34000       66.42600        5.09500
C         -4.97200       66.34300        6.01100
C         -7.28800       65.06100        4.39800
H         -7.84000       68.67000        7.04200
H         -6.32200       68.57100        7.92400
H         -5.10000       68.98000        5.92900
H         -7.79600       69.70300        4.68600
H         -5.57700       67.24700        4.18100
H         -8.03200       67.04500        4.53300
H         -7.74100       66.28400        6.09500
H         -5.35000       66.17100        7.01900
H         -4.02800       66.88700        6.07700
H         -4.78600       65.38500        5.53300
H         -6.84700       65.17300        3.41200
H         -8.29600       64.66300        4.29200
H         -6.70600       64.35400        4.98400
N        -11.86900       69.26800        6.01400
C        -11.58100       67.85100        5.73800
C        -10.55200       67.36700        6.75300
O         -9.63600       68.11800        7.08900
C        -11.05300       67.61300        4.30500
C        -11.00300       66.12400        3.93400
C        -11.89100       68.31300        3.22900
H        -11.07200       69.87100        6.18400
H        -12.81400       69.62200        6.03400
H        -12.49500       67.27700        5.86300
H        -10.62500       66.37400        7.17300
H        -10.04300       68.00500        4.24100
H        -12.00300       65.69100        3.95300
H        -10.36900       65.57800        4.62800
H        -10.57500       66.00300        2.93800
H        -12.90300       67.91900        3.24900
H        -11.43800       68.14700        2.25300
H        -11.91000       69.38500        3.41000
N         -7.78900       64.00300        7.80000
C         -7.17400       62.67800        7.72400
C         -7.76300       61.85800        8.87400
O         -7.76200       62.30100       10.02900
C         -5.63500       62.78600        7.82200
C         -4.89100       61.44700        8.06000
C         -4.72100       60.63100        6.77800
C         -3.50100       61.69300        8.64500
H         -7.35300       64.67500        8.42600
H         -8.60700       64.23900        7.25600
H         -7.43600       62.20500        6.77500
H         -8.18500       60.88400        8.67500
H         -5.40800       63.45300        8.65200
H         -5.25500       63.24700        6.91000
H         -5.42800       60.83800        8.78300
H         -4.10900       61.18200        6.06500
H         -5.69500       60.42500        6.33400
H         -4.23500       59.68500        7.01000
H         -2.91200       62.31300        7.97300
H         -2.99200       60.74500        8.81300
H         -3.59200       62.19500        9.60600
O        -15.26300       62.56800       -5.58200
H        -14.83700       61.78800       -5.22600
H        -15.94400       62.22700       -6.16200
C          0.23000       62.97600        5.37100
C         -0.93000       63.54300        5.88500
C         -1.69700       64.39800        5.09800
C         -1.32000       64.70000        3.78700
C         -0.14200       64.13400        3.29000
C          0.62300       63.27400        4.07300
C         -2.21900       65.64500        2.98200
C         -1.80400       66.05400        1.58500
C         -2.92800       65.06100        1.78700
C         -4.33700       65.56300        1.47400
O         -4.67100       66.72400        1.55600
N         -5.23000       64.61800        1.05500
C         -6.57600       64.73900        0.70900
N         -7.20600       63.66500        0.33100
C         -8.51100       63.98800        0.02300
C         -9.49100       63.09900       -0.44200
C        -10.78100       63.54100       -0.67600
C        -11.13500       64.89700       -0.48500
C        -10.15400       65.79500       -0.05700
C         -8.85700       65.32500        0.20000
S         -7.48900       66.21700        0.75200
C        -12.50700       65.33400       -0.72900
C        -13.27500       64.85400       -1.79200
C        -14.56000       65.33900       -2.01200
N        -15.10800       66.24800       -1.20600
C        -14.40600       66.69700       -0.17800
C        -13.12200       66.26300        0.10200
H        -14.85800       67.41500        0.43700
H          0.81800       62.32800        5.97000
H         -1.22500       63.33000        6.88000
H         -2.57600       64.82400        5.50400
H          0.19500       64.35000        2.31300
H          1.51200       62.85300        3.67400
H         -2.73400       66.37900        3.58800
H         -0.89800       65.66000        1.15000
H         -2.07000       67.06200        1.29600
H         -2.74900       64.02700        1.53300
H         -4.83200       63.67900        0.89200
H         -9.24000       62.08600       -0.60000
H        -11.52000       62.84900       -0.99300
H        -10.37600       66.82300        0.06900
H        -12.88300       64.11400       -2.43700
H        -15.13200       64.99100       -2.83700
H        -12.61500       66.63500        0.95000
