409
1h_active_pm6d3.log	Energy:   -1129.0416235
N         -6.50200       54.51300        5.68500
C         -6.45600       55.98400        5.64400
C         -7.61800       56.51000        4.80400
O         -7.75000       56.17100        3.63000
C         -5.11600       56.50300        5.09600
C         -3.96400       56.37900        6.10300
C         -2.66900       56.94800        5.50200
C         -1.43900       56.49000        6.29400
N         -0.18700       56.72400        5.52600
H         -5.86900       53.98600        5.09900
H         -7.15600       54.03800        6.29100
H         -6.58900       56.36800        6.65600
H         -8.33300       57.18700        5.24700
H         -5.22900       57.55900        4.84000
H         -4.86700       55.95600        4.18400
H         -3.82100       55.32800        6.35500
H         -4.21300       56.93400        7.01000
H         -2.72000       58.03900        5.49800
H         -2.57700       56.59700        4.47200
H         -1.54600       55.42100        6.50400
H         -1.41400       57.02100        7.25100
H         -0.06800       57.70800        5.31700
H         -0.21500       56.22400        4.64300
N        -10.23200       60.21900        3.93300
C        -10.49100       61.65000        3.97900
C        -11.94100       61.88000        4.41000
O        -12.87400       61.43800        3.73800
C        -10.19000       62.25800        2.61100
H        -10.72500       59.67900        3.22600
H         -9.58900       59.78100        4.57700
H         -9.82900       62.12300        4.70400
H        -12.14900       62.43600        5.31300
H        -10.82000       61.79100        1.85400
H         -9.14500       62.09500        2.35700
H        -10.39100       63.32900        2.63400
N        -14.93600       64.43100        5.12200
C        -15.50200       65.76000        4.85400
C        -16.76000       65.94700        5.70000
O        -17.70500       65.17400        5.56300
C        -15.80200       65.88900        3.35200
C        -15.84100       67.35400        2.88800
C        -17.04200       67.63000        1.97400
C        -16.82000       68.86600        1.09900
N        -16.67100       70.07900        1.92900
H        -15.42300       63.61800        4.74800
H        -14.08900       64.32700        5.66200
H        -14.77200       66.52100        5.13400
H        -16.81800       66.75500        6.41400
H        -16.75200       65.39600        3.13700
H        -15.02900       65.37600        2.77500
H        -14.92400       67.55800        2.33700
H        -15.88300       68.02700        3.74700
H        -17.93800       67.76200        2.58600
H        -17.19100       66.77900        1.31100
H        -17.67200       68.98100        0.42200
H        -15.92900       68.69800        0.48000
H        -16.55300       70.87400        1.31700
H        -15.88400       69.94500        2.54900
N        -11.99400       59.90200       -7.23700
C        -11.85600       59.69600       -5.78600
C        -13.14000       59.07000       -5.24600
O        -14.20200       59.70000       -5.25000
C        -11.50100       60.99000       -5.03000
C        -11.30100       60.70900       -3.53500
C        -10.20000       61.59600       -5.56900
H        -12.16000       60.84000       -7.58900
H        -11.92300       59.12100       -7.87400
H        -11.04000       58.99100       -5.61400
H        -13.11900       58.06300       -4.85600
H        -12.30400       61.71700       -5.15000
H        -10.50500       59.97500       -3.39300
H        -12.21900       60.32200       -3.09400
H        -11.03000       61.62600       -3.01400
H         -9.39500       60.86700       -5.48700
H         -9.94000       62.48100       -4.99300
H        -10.32300       61.88700       -6.61100
N        -19.06500       62.70900        5.32200
C        -18.77900       61.86500        4.16500
C        -17.35100       61.31900        4.28400
O        -16.43300       62.07000        4.61900
C        -18.93400       62.69300        2.87100
C        -20.24200       62.44000        2.10500
C        -21.45500       63.09100        2.75800
C        -20.16400       63.02700        0.70300
H        -18.52900       63.56900        5.38000
H        -19.75000       62.45500        6.01900
H        -19.46200       61.01400        4.14200
H        -17.15000       60.27900        4.07500
H        -18.11800       62.41700        2.20700
H        -18.83300       63.75800        3.08900
H        -20.39600       61.37100        2.01300
H        -21.37900       64.16500        2.64000
H        -21.51200       62.82500        3.81200
H        -22.36200       62.76200        2.25300
H        -20.00000       64.09700        0.76300
H        -21.09100       62.83100        0.16400
H        -19.35000       62.55800        0.16500
N        -14.26100       59.50700        2.18900
C        -13.63100       59.24800        0.89500
C        -12.31600       58.47600        1.04100
O        -11.67400       58.49000        2.09400
C        -13.36800       60.57600        0.16400
C        -14.60800       61.35500       -0.20700
C        -15.12200       62.31900        0.67900
C        -15.23300       61.13200       -1.44900
C        -16.27800       63.03700        0.33800
C        -16.39500       61.84400       -1.78500
C        -16.92900       62.77200       -0.87700
H        -13.78500       60.16500        2.79600
H        -15.12200       59.05500        2.46200
H        -14.30100       58.64900        0.28000
H        -12.81500       60.37200       -0.75300
H        -12.73400       61.20500        0.78700
H        -14.62800       62.50800        1.62200
H        -14.82100       60.41700       -2.14700
H        -16.66200       63.79300        1.00700
H        -16.87200       61.68900       -2.74300
H        -17.80400       63.33600       -1.15500
N        -11.86000       57.91500       -0.07600
C        -10.47500       57.49300       -0.28900
C         -9.51800       58.66500        0.00600
O         -9.68200       59.75600       -0.54000
C        -10.36500       57.01600       -1.75200
C         -8.92900       56.75200       -2.22900
C         -8.80700       56.55100       -3.74700
O         -7.76300       56.00900       -4.17900
O         -9.72000       56.91500       -4.52700
H        -12.45400       57.96500       -0.89900
H        -10.23600       56.66500        0.37800
H        -10.81800       57.77300       -2.39100
H        -10.94300       56.09700       -1.86200
H         -8.55500       55.86400       -1.71400
H         -8.28900       57.59100       -1.95800
H         -9.55100       56.74700       -5.45700
N         -8.50700       58.45500        0.85600
C         -7.48100       59.46800        1.11500
C         -6.45400       59.54300       -0.02300
O         -5.91000       58.52600       -0.44900
C         -6.79900       59.18100        2.45500
C         -5.66200       60.11900        2.79800
C         -5.92300       61.44900        3.17900
C         -4.33400       59.65800        2.72300
C         -4.85600       62.31400        3.47900
C         -3.27200       60.51700        3.04100
C         -3.53400       61.84400        3.41000
H         -8.39100       57.54000        1.27100
H         -7.96800       60.44100        1.18700
H         -6.42000       58.15900        2.43900
H         -7.53900       59.25000        3.24300
H         -6.94100       61.80800        3.24100
H         -4.13200       58.64300        2.40900
H         -5.04800       63.33700        3.76500
H         -2.25100       60.16900        2.98200
H         -2.71200       62.50000        3.64000
N         -6.10700       60.76400       -0.44300
C         -5.13100       61.01900       -1.50800
C         -3.85800       61.62800       -0.91000
O         -3.84800       62.77400       -0.46400
C         -5.75700       61.93100       -2.57100
C         -7.05800       61.37400       -3.17300
S         -6.88800       59.85400       -4.14900
C         -5.89500       60.45600       -5.53900
H         -6.56400       61.56500       -0.02800
H         -4.86400       60.08100       -1.99700
H         -5.03600       62.08900       -3.37000
H         -5.96300       62.89700       -2.11900
H         -7.50000       62.13600       -3.81100
H         -7.77000       61.18700       -2.36900
H         -5.73800       59.64500       -6.24800
H         -4.93000       60.79700       -5.17600
H         -6.40500       61.28200       -6.03300
N         -2.78200       60.85000       -0.84900
C         -1.57100       61.16600       -0.07200
C         -0.76100       62.38900       -0.51200
O         -0.07600       62.96000        0.33000
C         -0.65900       59.93700        0.02800
C         -0.51700       59.13000       -1.27200
C          0.31100       57.86800       -1.04300
O          0.12300       57.23700        0.02700
O          1.12000       57.58500       -1.95000
H         -2.86000       59.90800       -1.20500
H         -1.88500       61.40400        0.94200
H         -1.06700       59.29500        0.80800
H          0.33600       60.25400        0.34700
H         -0.04200       59.75800       -2.02900
H         -1.49800       58.82900       -1.64600
H          1.64600       56.79800       -1.79300
N         -0.88700       62.87300       -1.74900
C         -0.14200       64.05700       -2.19900
C         -1.00200       65.33000       -2.29600
O         -0.51100       66.36700       -2.73700
C          0.63200       63.72300       -3.47800
C          1.70400       62.68500       -3.28100
C          2.87200       62.86000       -2.59000
N          1.68600       61.38000       -3.72600
N          3.57200       61.65100       -2.61000
C          2.80200       60.77900       -3.28300
H         -1.50200       62.41000       -2.40900
H          0.61200       64.30000       -1.45000
H          1.10400       64.63000       -3.85700
H         -0.06200       63.34600       -4.21500
H          0.94800       60.90800       -4.24500
H          3.18400       63.76700       -2.09100
H          3.04300       59.73300       -3.43400
N         -2.25300       65.29400       -1.82100
C         -3.13600       66.46400       -1.79000
C         -3.63800       66.88900       -3.17300
O         -3.74200       66.06500       -4.08400
H         -2.60600       64.41000       -1.47600
H         -2.60000       67.30200       -1.34300
H         -4.00400       66.24500       -1.16900
H         -3.90300       67.92100       -3.35200
N         -7.01600       65.52000       -7.37500
C         -6.11400       65.09100       -6.30000
C         -5.04600       64.11000       -6.79400
O         -5.29700       63.31300       -7.69400
C         -6.93800       64.49400       -5.14900
C         -7.63100       65.56000       -4.27100
C         -9.12000       65.26700       -4.11600
C         -7.04200       65.58000       -2.86500
H         -7.50900       64.79300       -7.88700
H         -7.14200       66.49700       -7.59700
H         -5.57300       65.95300       -5.91700
H         -4.06300       64.11900       -6.34600
H         -6.26500       63.90800       -4.52600
H         -7.67600       63.80700       -5.56700
H         -7.51500       66.54900       -4.71200
H         -9.26500       64.29400       -3.64600
H         -9.57600       65.28000       -5.10200
H         -9.58300       66.03900       -3.50000
H         -7.25000       64.63700       -2.36800
H         -7.48000       66.39400       -2.29000
H         -5.96900       65.71900       -2.91600
N        -12.22800       64.68300       -8.39800
C        -13.06000       64.71500       -7.18900
C        -14.11000       65.82500       -7.27900
O        -14.09000       66.61300       -8.22600
C        -12.15300       64.89600       -5.96900
O        -12.85100       64.68900       -4.75800
H        -11.97500       65.57800       -8.79400
H        -11.92400       63.81300       -8.81200
H        -13.58800       63.76900       -7.08000
H        -11.73300       65.89900       -5.97200
H        -11.34200       64.17000       -6.03000
H        -12.26800       64.92000       -4.02700
N        -15.02000       65.87100       -6.30500
C        -15.96000       66.98100       -6.07600
C        -16.92000       67.23600       -7.26400
O        -17.12900       68.36500       -7.68100
C        -15.17300       68.21500       -5.57400
C        -15.98900       69.18200       -4.70700
O        -16.26900       68.81700       -3.54000
O        -16.23500       70.31700       -5.16000
H        -14.92200       65.16800       -5.58100
H        -16.59600       66.67200       -5.24900
H        -17.41400       66.39800       -7.73400
H        -14.74600       68.74500       -6.42700
H        -14.34100       67.87100       -4.95700
H        -16.66500       70.91500       -4.54500
N        -21.30900       66.71200       -5.41700
C        -21.32700       67.19900       -4.02800
C        -22.45300       68.19300       -3.72400
O        -22.62800       68.59300       -2.57800
C        -19.96200       67.81300       -3.68800
C        -18.86600       66.74700       -3.62100
S        -19.11300       65.42500       -2.40600
C        -19.04500       66.40600       -0.88600
H        -20.78100       67.23900       -6.09800
H        -21.81000       65.87600       -5.68200
H        -21.50000       66.35400       -3.36100
H        -23.09400       68.54200       -4.52000
H        -20.01600       68.31800       -2.72400
H        -19.69500       68.55800       -4.44000
H        -17.93800       67.24600       -3.36800
H        -18.74600       66.30100       -4.60600
H        -19.04000       65.74600       -0.02500
H        -19.91400       67.06100       -0.83200
H        -18.13400       67.00200       -0.88000
N         -6.18800       64.63300       12.10600
C         -5.75500       66.00900       11.83800
C         -6.52900       66.61800       10.66200
O         -6.93600       65.89500        9.75000
C         -4.23400       66.04500       11.56100
C         -3.79800       65.15300       10.38500
C         -2.28500       65.07700       10.23000
O         -1.64000       64.13200       10.64800
N         -1.66400       66.04300        9.58800
H         -6.61800       64.13000       11.34200
H         -6.06200       64.20700       13.01400
H         -5.95800       66.61600       12.72200
H         -6.71700       67.68100       10.63300
H         -3.70700       65.72000       12.45900
H         -3.93500       67.07300       11.35200
H         -4.22500       65.53300        9.45800
H         -4.16200       64.14300       10.55000
H         -0.66700       65.95700        9.50600
H         -2.18500       66.81800        9.21300
N         -6.82700       68.61600        7.05200
C         -6.10800       68.60300        5.76100
C         -6.72700       69.54400        4.71000
O         -6.00300       70.11300        3.89800
C         -5.98100       67.16200        5.19200
C         -7.33800       66.42600        5.09700
C         -4.97000       66.34300        6.01300
C         -7.28700       65.06000        4.40100
H         -7.83800       68.67200        7.04300
H         -6.32000       68.57000        7.92400
H         -5.09900       68.98000        5.92900
H         -7.79500       69.70400        4.68800
H         -5.57600       67.24700        4.18200
H         -8.03100       67.04400        4.53400
H         -7.74000       66.28400        6.09700
H         -5.34900       66.17000        7.02000
H         -4.02800       66.88800        6.07900
H         -4.78400       65.38500        5.53300
H         -6.84400       65.17000        3.41500
H         -8.29500       64.66200        4.29300
H         -6.70600       64.35300        4.98900
N        -11.86700       69.26600        6.01000
C        -11.58000       67.84900        5.73600
C        -10.55000       67.36500        6.75000
O         -9.63400       68.11600        7.08600
C        -11.05500       67.60900        4.30200
C        -11.00400       66.11900        3.93500
C        -11.89600       68.30600        3.22700
H        -11.07100       69.87300        6.16600
H        -12.81400       69.61700        6.04200
H        -12.49400       67.27600        5.86200
H        -10.62400       66.37300        7.17100
H        -10.04600       68.00100        4.23600
H        -12.00400       65.68700        3.95400
H        -10.36900       65.57400        4.63000
H        -10.57700       65.99700        2.93900
H        -12.90900       67.91500        3.25100
H        -11.44800       68.13100        2.25000
H        -11.91100       69.38000        3.40300
N         -7.78600       64.00300        7.80100
C         -7.17200       62.67700        7.72500
C         -7.76100       61.85800        8.87400
O         -7.75600       62.29900       10.03000
C         -5.63300       62.78400        7.82300
C         -4.88900       61.44600        8.06000
C         -4.71700       60.63100        6.77700
C         -3.49900       61.69000        8.64600
H         -7.35000       64.67500        8.42700
H         -8.60400       64.23900        7.25800
H         -7.43400       62.20500        6.77500
H         -8.18700       60.88500        8.67500
H         -5.40600       63.45100        8.65200
H         -5.25300       63.24600        6.91100
H         -5.42700       60.83600        8.78200
H         -4.10500       61.18300        6.06500
H         -5.69000       60.42500        6.33300
H         -4.23200       59.68400        7.00900
H         -2.91400       62.31500        7.97700
H         -2.99100       60.74200        8.81300
H         -3.59300       62.19000        9.60900
O        -15.31100       62.59600       -5.56600
H        -14.85000       61.83700       -5.20700
H        -15.93600       62.22500       -6.18900
C          0.35600       61.20800        7.16100
O          0.89300       61.95900        6.04600
C          0.17500       62.91000        5.34600
C         -0.95700       63.52000        5.88200
C         -1.69400       64.40500        5.10000
C         -1.30800       64.70400        3.79000
C         -0.13300       64.12500        3.29400
C          0.60500       63.23100        4.06500
C         -2.19900       65.65300        2.98300
C         -1.78600       66.05400        1.58200
C         -2.91100       65.06300        1.79200
C         -4.32100       65.56400        1.47800
O         -4.65500       66.72600        1.55900
N         -5.21400       64.61900        1.05800
C         -6.56200       64.74200        0.71600
N         -7.19800       63.67400        0.33700
C         -8.50600       64.00600        0.03800
C         -9.49800       63.13300       -0.43200
C        -10.78300       63.59500       -0.66300
C        -11.12500       64.95400       -0.45600
C        -10.13200       65.83100       -0.02100
C         -8.84000       65.34400        0.22600
S         -7.46500       66.22600        0.77100
N        -14.49500       65.66000       -1.48100
C        -15.67200       65.50600       -2.31000
C        -13.42000       64.84800       -1.51200
C        -12.48700       65.42000       -0.70700
C        -13.10000       66.56500       -0.18800
N        -14.31600       66.71500       -0.63300
H         -0.72300       61.13200        7.04300
H          0.80600       60.21800        7.13500
H          0.61400       61.71900        8.08800
H         -1.25400       63.32000        6.87700
H         -2.56100       64.85400        5.50700
H          0.21500       64.35200        2.32300
H          1.48700       62.79100        3.67500
H         -2.71300       66.39000        3.58600
H         -0.88100       65.65600        1.15000
H         -2.05100       67.06100        1.28800
H         -2.73200       64.02900        1.54100
H         -4.81700       63.67900        0.89400
H         -9.26100       62.11700       -0.60000
H        -11.52900       62.91800       -0.99200
H        -10.34000       66.85900        0.11700
H        -16.37200       66.27700       -2.03400
H        -16.06300       64.52700       -2.13900
H        -15.35900       65.58100       -3.33900
H        -13.40000       63.96400       -2.09800
H        -12.64500       67.24600        0.48000
