386
1j_active_pm6d3.log	Energy:   -1075.1058456
N         -6.50200       54.51200        5.68500
C         -6.45500       55.98300        5.64400
C         -7.61800       56.50800        4.80500
O         -7.75000       56.16900        3.63100
C         -5.11500       56.50300        5.09600
C         -3.96300       56.38000        6.10400
C         -2.66800       56.94800        5.50200
C         -1.43800       56.49000        6.29400
N         -0.18700       56.72500        5.52600
H         -5.86900       53.98500        5.09800
H         -7.15600       54.03700        6.29000
H         -6.58900       56.36700        6.65600
H         -8.33300       57.18500        5.24800
H         -5.22900       57.55800        4.84000
H         -4.86600       55.95600        4.18500
H         -3.82100       55.32800        6.35600
H         -4.21300       56.93400        7.01000
H         -2.72000       58.03900        5.49800
H         -2.57600       56.59700        4.47200
H         -1.54600       55.42100        6.50400
H         -1.41400       57.02100        7.25200
H         -0.06800       57.70900        5.31700
H         -0.21500       56.22500        4.64300
N        -10.23300       60.21700        3.93400
C        -10.49000       61.64800        3.98000
C        -11.94100       61.88100        4.40900
O        -12.87300       61.44900        3.72900
C        -10.18800       62.25600        2.61200
H        -10.72700       59.67600        3.22700
H         -9.59000       59.77800        4.57800
H         -9.82800       62.12000        4.70500
H        -12.14900       62.42900        5.31600
H        -10.81700       61.78900        1.85500
H         -9.14300       62.09100        2.35900
H        -10.38700       63.32700        2.63600
N        -14.93200       64.43100        5.11800
C        -15.50000       65.76000        4.86000
C        -16.75500       65.94200        5.71000
O        -17.69900       65.16800        5.57400
C        -15.81000       65.90400        3.36200
C        -15.86900       67.37600        2.92800
C        -17.05900       67.65000        1.99700
C        -16.83600       68.89200        1.13100
N        -16.68800       70.10000        1.96800
H        -15.42200       63.61900        4.74700
H        -14.07900       64.32500        5.64900
H        -14.77000       66.52200        5.14300
H        -16.81300       66.74700        6.42700
H        -16.75600       65.40400        3.14700
H        -15.03500       65.40700        2.77500
H        -14.94400       67.61100        2.40400
H        -15.93900       68.03200        3.79700
H        -17.96200       67.77100        2.59900
H        -17.19500       66.79900        1.32900
H        -17.68600       69.01000        0.45200
H        -15.94200       68.73200        0.51500
H        -16.57000       70.89900        1.36200
H        -15.90100       69.96300        2.58900
N        -11.99400       59.90000       -7.24000
C        -11.85700       59.69400       -5.78800
C        -13.13900       59.06200       -5.25000
O        -14.20500       59.68500       -5.26000
C        -11.50500       60.98700       -5.03200
C        -11.30500       60.70600       -3.53600
C        -10.20500       61.59600       -5.56900
H        -12.16400       60.83900       -7.58900
H        -11.92000       59.12100       -7.87800
H        -11.03900       58.99100       -5.61700
H        -13.11300       58.05700       -4.85600
H        -12.31000       61.71300       -5.15100
H        -10.51000       59.97200       -3.39400
H        -12.22400       60.32000       -3.09600
H        -11.03500       61.62300       -3.01500
H         -9.39700       60.87000       -5.48400
H         -9.95000       62.48400       -4.99500
H        -10.32700       61.88400       -6.61200
N        -14.26900       59.50900        2.18800
C        -13.64000       59.24900        0.89400
C        -12.32700       58.47400        1.04300
O        -11.68600       58.48600        2.09800
C        -13.37500       60.57600        0.16400
C        -14.60300       61.37500       -0.21100
C        -15.10700       62.34700        0.67400
C        -15.21400       61.18000       -1.46400
C        -16.22000       63.12000        0.30700
C        -16.33000       61.95100       -1.82800
C        -16.82800       62.91800       -0.94200
H        -13.79300       60.16800        2.79500
H        -15.13000       59.05800        2.46200
H        -14.31100       58.65100        0.28000
H        -12.82200       60.36800       -0.75200
H        -12.73400       61.19800        0.78700
H        -14.63400       62.50200        1.63300
H        -14.82100       60.44900       -2.15600
H        -16.60400       63.87100        0.98100
H        -16.79800       61.81300       -2.79300
H        -17.68100       63.50900       -1.22900
N        -11.86600       57.91500       -0.07300
C        -10.48100       57.49600       -0.28500
C         -9.52600       58.66800        0.01300
O         -9.69400       59.76300       -0.52700
C        -10.36900       57.01900       -1.74700
C         -8.93300       56.75700       -2.22700
C         -8.81400       56.55800       -3.74600
O         -7.77100       56.01700       -4.17900
O         -9.72900       56.92400       -4.52300
H        -12.45900       57.96400       -0.89700
H        -10.24000       56.66700        0.38200
H        -10.82400       57.77600       -2.38600
H        -10.94600       56.09900       -1.85900
H         -8.55800       55.86800       -1.71400
H         -8.29400       57.59600       -1.95400
H         -9.56200       56.75700       -5.45300
N         -8.51100       58.45600        0.85800
C         -7.48400       59.46900        1.11700
C         -6.45700       59.54400       -0.02200
O         -5.91000       58.52800       -0.44500
C         -6.80100       59.18000        2.45600
C         -5.66300       60.11700        2.79900
C         -5.92300       61.44700        3.18000
C         -4.33600       59.65500        2.72200
C         -4.85600       62.31100        3.47900
C         -3.27300       60.51300        3.04000
C         -3.53400       61.84100        3.40900
H         -8.39200       57.53900        1.26800
H         -7.97000       60.44100        1.19000
H         -6.42200       58.15800        2.43900
H         -7.54000       59.24900        3.24500
H         -6.94000       61.80600        3.24400
H         -4.13400       58.64000        2.40800
H         -5.04700       63.33400        3.76600
H         -2.25200       60.16400        2.98000
H         -2.71100       62.49500        3.63900
N         -6.11400       60.76500       -0.44400
C         -5.13600       61.02100       -1.50600
C         -3.86400       61.62900       -0.90500
O         -3.85800       62.77300       -0.45300
C         -5.75900       61.93300       -2.57100
C         -7.06100       61.37800       -3.17300
S         -6.89200       59.85600       -4.14800
C         -5.89800       60.45600       -5.53800
H         -6.57400       61.56600       -0.03100
H         -4.86700       60.08300       -1.99500
H         -5.03700       62.08900       -3.36900
H         -5.96400       62.89900       -2.11800
H         -7.50100       62.14000       -3.81200
H         -7.77400       61.19200       -2.36900
H         -5.74100       59.64400       -6.24600
H         -4.93200       60.79700       -5.17500
H         -6.40600       61.28200       -6.03300
N         -2.78500       60.85300       -0.84900
C         -1.57400       61.16800       -0.07200
C         -0.76300       62.38900       -0.51200
O         -0.07600       62.95900        0.32900
C         -0.66200       59.93800        0.02800
C         -0.51900       59.13200       -1.27200
C          0.31100       57.87000       -1.04300
O          0.12300       57.23900        0.02700
O          1.12000       57.58800       -1.95000
H         -2.86100       59.91300       -1.21000
H         -1.88800       61.40600        0.94200
H         -1.07200       59.29500        0.80600
H          0.33300       60.25400        0.34900
H         -0.04300       59.76000       -2.02900
H         -1.49900       58.83100       -1.64800
H          1.64600       56.80000       -1.79400
N         -0.88900       62.87400       -1.74900
C         -0.14200       64.05700       -2.19900
C         -1.00100       65.33000       -2.29700
O         -0.51000       66.36600       -2.74000
C          0.63300       63.72200       -3.47800
C          1.70400       62.68400       -3.28100
C          2.87200       62.86000       -2.59000
N          1.68600       61.37900       -3.72600
N          3.57300       61.65100       -2.61000
C          2.80300       60.77800       -3.28200
H         -1.50300       62.41100       -2.40900
H          0.61200       64.30000       -1.45000
H          1.10400       64.62800       -3.85800
H         -0.06200       63.34400       -4.21500
H          0.94900       60.90700       -4.24400
H          3.18400       63.76700       -2.09200
H          3.04400       59.73300       -3.43300
N         -2.25300       65.29400       -1.82200
C         -3.13600       66.46400       -1.79000
C         -3.63800       66.88900       -3.17300
O         -3.74100       66.06500       -4.08400
H         -2.60500       64.41100       -1.47500
H         -2.59900       67.30200       -1.34400
H         -4.00300       66.24600       -1.16900
H         -3.90400       67.92000       -3.35200
N         -7.01600       65.52000       -7.37600
C         -6.11500       65.09100       -6.30000
C         -5.04700       64.11000       -6.79300
O         -5.29800       63.31300       -7.69400
C         -6.94000       64.49500       -5.14900
C         -7.63100       65.56100       -4.27000
C         -9.12000       65.27100       -4.11300
C         -7.04300       65.58000       -2.86300
H         -7.50800       64.79200       -7.88900
H         -7.14200       66.49700       -7.59800
H         -5.57400       65.95300       -5.91700
H         -4.06400       64.11900       -6.34500
H         -6.26700       63.90800       -4.52700
H         -7.67900       63.80900       -5.56700
H         -7.51300       66.55000       -4.71100
H         -9.26600       64.29600       -3.64600
H         -9.57700       65.28500       -5.09900
H         -9.58100       66.04200       -3.49600
H         -7.25200       64.63700       -2.36600
H         -7.47800       66.39600       -2.28900
H         -5.96900       65.71700       -2.91500
N        -12.24900       64.68200       -8.45200
C        -13.05400       64.71300       -7.23000
C        -14.09900       65.83000       -7.28300
O        -14.08300       66.63500       -8.21700
C        -12.10800       64.88800       -6.04700
O        -12.75900       64.59500       -4.84100
H        -12.00900       65.57600       -8.85800
H        -11.94900       63.81200       -8.86800
H        -13.58100       63.76800       -7.11000
H        -11.73800       65.91000       -6.01600
H        -11.26900       64.20100       -6.15500
H        -12.35100       65.12000       -4.14600
N        -14.99600       65.87300       -6.29500
C        -15.94800       66.97100       -6.05600
C        -16.90200       67.22900       -7.25000
O        -17.09000       68.35700       -7.68300
C        -15.17900       68.20800       -5.52900
C        -15.99700       69.13200       -4.61300
O        -16.13400       68.79300       -3.41000
O        -16.39700       70.21900       -5.07300
H        -14.90800       65.15800       -5.57800
H        -16.58100       66.64100       -5.23500
H        -17.41200       66.39500       -7.70900
H        -14.77700       68.77200       -6.37300
H        -14.32600       67.86400       -4.94100
H        -16.82700       70.79500       -4.43700
N        -21.29600       66.71400       -5.41400
C        -21.31300       67.20600       -4.02600
C        -22.44600       68.19400       -3.72300
O        -22.62500       68.59300       -2.57800
C        -19.95100       67.83300       -3.69200
C        -18.84100       66.78200       -3.62800
S        -19.07800       65.45500       -2.42000
C        -19.03100       66.42200       -0.89200
H        -20.75800       67.23300       -6.09400
H        -21.80600       65.88300       -5.67800
H        -21.47900       66.36100       -3.35700
H        -23.08800       68.53900       -4.52000
H        -20.00800       68.33700       -2.72800
H        -19.69600       68.58100       -4.44400
H        -17.91500       67.28700       -3.37700
H        -18.72100       66.33600       -4.61400
H        -19.02500       65.75200       -0.03700
H        -19.90700       67.06800       -0.83800
H        -18.12600       67.02500       -0.87600
N         -6.18800       64.63300       12.10700
C         -5.75400       66.00900       11.83900
C         -6.52800       66.61800       10.66300
O         -6.93500       65.89500        9.75000
C         -4.23400       66.04500       11.56100
C         -3.79700       65.15300       10.38600
C         -2.28500       65.07700       10.23000
O         -1.64000       64.13100       10.64800
N         -1.66400       66.04300        9.58800
H         -6.61800       64.13000       11.34200
H         -6.06300       64.20700       13.01400
H         -5.95700       66.61600       12.72300
H         -6.71700       67.68100       10.63400
H         -3.70700       65.72000       12.46000
H         -3.93500       67.07300       11.35300
H         -4.22500       65.53300        9.45800
H         -4.16200       64.14300       10.55000
H         -0.66700       65.95600        9.50500
H         -2.18500       66.81800        9.21300
N         -6.82700       68.61700        7.05300
C         -6.10800       68.60400        5.76200
C         -6.72600       69.54600        4.71200
O         -6.00100       70.11500        3.90100
C         -5.98200       67.16400        5.19300
C         -7.33900       66.42700        5.09600
C         -4.97100       66.34300        6.01300
C         -7.28800       65.06200        4.40000
H         -7.83800       68.67300        7.04400
H         -6.32100       68.57100        7.92600
H         -5.09900       68.98100        5.93100
H         -7.79400       69.70600        4.68900
H         -5.57600       67.24800        4.18300
H         -8.03000       67.04600        4.53300
H         -7.74100       66.28500        6.09700
H         -5.35000       66.17100        7.02100
H         -4.02800       66.88700        6.08000
H         -4.78600       65.38600        5.53400
H         -6.84500       65.17300        3.41400
H         -8.29600       64.66400        4.29300
H         -6.70600       64.35400        4.98700
N        -11.86600       69.26800        6.01300
C        -11.57800       67.85100        5.73900
C        -10.54900       67.36700        6.75500
O         -9.63400       68.11900        7.09400
C        -11.05200       67.61100        4.30500
C        -11.00300       66.12200        3.93500
C        -11.89200       68.31200        3.23000
H        -11.07000       69.87400        6.17200
H        -12.81200       69.62000        6.04100
H        -12.49200       67.27700        5.86400
H        -10.62200       66.37400        7.17400
H        -10.04300       68.00300        4.23900
H        -12.00400       65.69100        3.95400
H        -10.37100       65.57600        4.63100
H        -10.57400       66.00000        2.94100
H        -12.90700       67.92300        3.25600
H        -11.44700       68.14000        2.25100
H        -11.90600       69.38400        3.40800
N         -7.78600       64.00300        7.80100
C         -7.17200       62.67700        7.72500
C         -7.76100       61.85800        8.87400
O         -7.75500       62.29900       10.03000
C         -5.63300       62.78400        7.82200
C         -4.88900       61.44500        8.06000
C         -4.71600       60.63100        6.77800
C         -3.49900       61.69000        8.64700
H         -7.34900       64.67500        8.42600
H         -8.60500       64.23900        7.25900
H         -7.43400       62.20500        6.77500
H         -8.18600       60.88500        8.67500
H         -5.40500       63.45100        8.65200
H         -5.25200       63.24500        6.91000
H         -5.42700       60.83500        8.78200
H         -4.10400       61.18300        6.06500
H         -5.69000       60.42500        6.33200
H         -4.23200       59.68300        7.00900
H         -2.91300       62.31400        7.97800
H         -2.99100       60.74100        8.81400
H         -3.59300       62.19000        9.60900
O        -15.30600       62.60500       -5.66100
H        -14.84600       61.89700       -5.21000
H        -15.96700       62.16100       -6.19300
C          0.36300       61.21000        7.16100
O          0.89100       61.96700        6.04300
C          0.16800       62.91400        5.34300
C         -0.96400       63.52200        5.88100
C         -1.70700       64.40300        5.09900
C         -1.32700       64.70100        3.78700
C         -0.15100       64.12700        3.28900
C          0.59300       63.23700        4.06000
C         -2.22700       65.64800        2.98100
C         -1.81900       66.04500        1.57800
C         -2.94800       65.06000        1.79300
C         -4.35900       65.56500        1.47600
O         -4.69100       66.72600        1.56200
N         -5.25900       64.62600        1.04600
C         -6.61100       64.75400        0.70800
N         -7.25100       63.68700        0.32600
C         -8.56200       64.01800        0.03500
C         -9.55300       63.14000       -0.42900
C        -10.84500       63.59100       -0.64500
C        -11.19700       64.94800       -0.43600
C        -10.20300       65.83400       -0.00800
C         -8.90200       65.35400        0.22900
S         -7.52000       66.23500        0.77000
C        -12.57100       65.40300       -0.69100
C        -13.29000       64.95100       -1.79500
C        -15.03700       66.34300       -1.26700
N        -14.43500       66.77700       -0.15000
C        -13.22100       66.31400        0.14200
N        -14.48700       65.44000       -2.07100
H         -1.25700       63.32300        6.87700
H         -2.57400       64.85000        5.50800
H         -0.71800       61.14300        7.05500
H          0.63600       61.71300        8.09000
H          0.80400       60.21500        7.12300
H          0.19600       64.35500        2.31900
H          1.47600       62.80000        3.66900
H         -2.73300       66.38900        3.58500
H         -0.91600       65.64400        1.14400
H         -2.08000       67.05400        1.28500
H         -2.77400       64.02400        1.54300
H         -4.86300       63.68700        0.87800
H         -9.30800       62.12600       -0.60100
H        -11.58400       62.90100       -0.96900
H        -10.41400       66.86300        0.12700
H        -12.88700       64.21400       -2.43900
H        -12.74900       66.65300        1.02600
H        -15.99600       66.72400       -1.52400
