394
1k_active_pm6d3.log	Energy:   -1051.4402880
N         -6.50900       54.50900        5.68300
C         -6.46400       55.97900        5.64200
C         -7.62700       56.50400        4.80300
O         -7.75900       56.16600        3.62900
C         -5.12600       56.49800        5.09200
C         -3.97600       56.36600        6.10000
C         -2.67700       56.91200        5.48900
C         -1.45400       56.41100        6.26600
N         -0.21700       56.53200        5.44900
H         -5.88000       53.98200        5.09200
H         -7.15900       54.03300        6.29200
H         -6.59700       56.36300        6.65300
H         -8.34300       57.18000        5.24700
H         -5.23700       57.55500        4.83900
H         -4.88000       55.95200        4.17900
H         -3.84700       55.31400        6.35800
H         -4.21600       56.93000        7.00300
H         -2.70500       58.00400        5.49500
H         -2.60500       56.56900        4.45500
H         -1.61700       55.35900        6.52000
H         -1.37400       56.97200        7.20300
H          0.58900       56.18500        5.95500
H         -0.05900       57.48500        5.15800
N        -10.23200       60.21800        3.93700
C        -10.49000       61.64900        3.98200
C        -11.94000       61.88000        4.41100
O        -12.87300       61.44100        3.73600
C        -10.18900       62.25600        2.61300
H        -10.72700       59.67800        3.23000
H         -9.58900       59.77900        4.58000
H         -9.82800       62.12100        4.70700
H        -12.14900       62.43200        5.31500
H        -10.81900       61.78800        1.85700
H         -9.14400       62.09200        2.35900
H        -10.38900       63.32700        2.63700
N        -14.93200       64.43200        5.12000
C        -15.50000       65.76100        4.86200
C        -16.75500       65.94300        5.71200
O        -17.69700       65.16600        5.57900
C        -15.81000       65.90400        3.36500
C        -15.87500       67.37700        2.93400
C        -17.06000       67.64500        1.99500
C        -16.83300       68.88400        1.12500
N        -16.68100       70.09300        1.95900
H        -15.42000       63.62000        4.74600
H        -14.08100       64.32500        5.65400
H        -14.77000       66.52200        5.14400
H        -16.81400       66.75000        6.42700
H        -16.75500       65.40200        3.14900
H        -15.03400       65.41100        2.77600
H        -14.94700       67.61900        2.41800
H        -15.95500       68.03100        3.80400
H        -17.96700       67.76900        2.59200
H        -17.19200       66.79300        1.33000
H        -17.68200       69.00300        0.44500
H        -15.93900       68.71800        0.51100
H        -15.89400       69.95300        2.57800
H        -17.51500       70.22300        2.52200
N        -11.99300       59.90100       -7.23900
C        -11.85600       59.69600       -5.78700
C        -13.13900       59.06700       -5.24900
O        -14.20200       59.69700       -5.25300
C        -11.50200       60.98900       -5.03100
C        -11.30200       60.70700       -3.53500
C        -10.20200       61.59600       -5.56900
H        -12.16000       60.84000       -7.59000
H        -11.92200       59.12100       -7.87700
H        -11.03900       58.99100       -5.61600
H        -13.11800       58.06000       -4.85900
H        -12.30500       61.71600       -5.15000
H        -10.50700       59.97300       -3.39400
H        -12.22100       60.32100       -3.09600
H        -11.03100       61.62300       -3.01400
H         -9.39600       60.86800       -5.48600
H         -9.94400       62.48200       -4.99400
H        -10.32400       61.88500       -6.61200
N        -14.26900       59.51300        2.18500
C        -13.64000       59.25300        0.89100
C        -12.32500       58.48000        1.03900
O        -11.68500       58.49200        2.09400
C        -13.37600       60.58000        0.16000
C        -14.60400       61.37900       -0.21700
C        -15.10600       62.35300        0.66600
C        -15.21600       61.18200       -1.46900
C        -16.22000       63.12500        0.29900
C        -16.33400       61.95000       -1.83300
C        -16.83200       62.91900       -0.94800
H        -13.79300       60.17200        2.79200
H        -15.13000       59.06100        2.46000
H        -14.31000       58.65400        0.27600
H        -12.82100       60.37200       -0.75500
H        -12.73500       61.20300        0.78400
H        -14.63200       62.51200        1.62400
H        -14.82400       60.44700       -2.15800
H        -16.60300       63.87600        0.97300
H        -16.80700       61.80500       -2.79500
H        -17.69100       63.50300       -1.22900
N        -11.86500       57.91900       -0.07600
C        -10.48000       57.49600       -0.28700
C         -9.52200       58.66600        0.00900
O         -9.68500       59.75800       -0.53600
C        -10.36800       57.01800       -1.74900
C         -8.93200       56.75300       -2.22700
C         -8.81000       56.55200       -3.74500
O         -7.76500       56.01300       -4.17700
O         -9.72400       56.91500       -4.52500
H        -12.45800       57.96800       -0.90000
H        -10.24200       56.66800        0.38100
H        -10.82100       57.77400       -2.38900
H        -10.94600       56.09800       -1.86000
H         -8.55800       55.86500       -1.71200
H         -8.29200       57.59200       -1.95500
H         -9.55500       56.74700       -5.45500
N         -8.51000       58.45400        0.85800
C         -7.48200       59.46700        1.11700
C         -6.45600       59.54200       -0.02200
O         -5.90600       58.52600       -0.44300
C         -6.80100       59.17800        2.45700
C         -5.66300       60.11500        2.80200
C         -5.92400       61.44400        3.18700
C         -4.33600       59.65400        2.72100
C         -4.85600       62.30900        3.48300
C         -3.27200       60.51300        3.03600
C         -3.53400       61.84000        3.40800
H         -8.39400       57.53900        1.27200
H         -7.96900       60.44000        1.18900
H         -6.42300       58.15600        2.44000
H         -7.54100       59.24700        3.24500
H         -6.94100       61.80300        3.25000
H         -4.13600       58.64100        2.39900
H         -5.04900       63.33200        3.76700
H         -2.25300       60.16600        2.96000
H         -2.71400       62.50000        3.62700
N         -6.11400       60.76300       -0.44600
C         -5.13800       61.01800       -1.51100
C         -3.86400       61.62600       -0.91500
O         -3.85900       62.76700       -0.45600
C         -5.76200       61.93100       -2.57400
C         -7.06300       61.37500       -3.17600
S         -6.89200       59.85400       -4.15100
C         -5.89600       60.45500       -5.53900
H         -6.57500       61.56400       -0.03500
H         -4.87100       60.08000       -2.00100
H         -5.04100       62.09000       -3.37200
H         -5.96800       62.89600       -2.12000
H         -7.50400       62.13600       -3.81500
H         -7.77600       61.18700       -2.37200
H         -5.73900       59.64400       -6.24800
H         -4.93100       60.79500       -5.17500
H         -6.40500       61.28200       -6.03400
N         -2.78400       60.85200       -0.86500
C         -1.57900       61.16500       -0.08000
C         -0.75800       62.38200       -0.51200
O         -0.06000       62.93400        0.33400
C         -0.67100       59.93400        0.03500
C         -0.51800       59.11900       -1.25800
C          0.31400       57.86200       -1.01100
O          0.14900       57.26200        0.08100
O          1.11200       57.56000       -1.92100
H         -2.85800       59.91400       -1.23300
H         -1.90300       61.40800        0.93000
H         -1.08900       59.29800        0.81500
H          0.32200       60.25000        0.36200
H         -0.03900       59.74300       -2.01600
H         -1.49500       58.81400       -1.63700
H          1.64800       56.78300       -1.74900
N         -0.88700       62.87600       -1.74400
C         -0.14000       64.05900       -2.19300
C         -0.99900       65.33200       -2.29300
O         -0.50800       66.36800       -2.73500
C          0.63300       63.72400       -3.47300
C          1.70500       62.68600       -3.27900
C          2.87400       62.86100       -2.59000
N          1.68600       61.38000       -3.72300
N          3.57300       61.65200       -2.60800
C          2.80200       60.77900       -3.28000
H         -1.50700       62.42000       -2.40400
H          0.61300       64.30100       -1.44400
H          1.10500       64.63000       -3.85400
H         -0.06200       63.34700       -4.21100
H          0.94800       60.90900       -4.24200
H          3.18700       63.76900       -2.09400
H          3.04400       59.73400       -3.43200
N         -2.25200       65.29500       -1.82200
C         -3.13500       66.46500       -1.79000
C         -3.63800       66.88900       -3.17200
O         -3.74200       66.06500       -4.08300
H         -2.60800       64.41100       -1.48200
H         -2.59800       67.30300       -1.34400
H         -4.00100       66.24600       -1.16800
H         -3.90500       67.92100       -3.35100
N         -7.01600       65.52000       -7.37600
C         -6.11600       65.09100       -6.30000
C         -5.04700       64.11000       -6.79300
O         -5.29800       63.31300       -7.69400
C         -6.94100       64.49400       -5.14900
C         -7.63300       65.56000       -4.27100
C         -9.12200       65.26800       -4.11400
C         -7.04400       65.58000       -2.86500
H         -7.50900       64.79300       -7.88900
H         -7.14200       66.49700       -7.59800
H         -5.57400       65.95300       -5.91700
H         -4.06400       64.11900       -6.34500
H         -6.26800       63.90800       -4.52700
H         -7.67900       63.80800       -5.56800
H         -7.51600       66.54900       -4.71200
H         -9.26600       64.29500       -3.64400
H         -9.57900       65.28000       -5.10000
H         -9.58300       66.03900       -3.49800
H         -7.25200       64.63800       -2.36700
H         -7.48000       66.39500       -2.29100
H         -5.97000       65.71800       -2.91700
N        -12.24500       64.68500       -8.44500
C        -13.05900       64.71800       -7.22900
C        -14.10500       65.83300       -7.29400
O        -14.08600       66.63500       -8.23000
C        -12.12500       64.89800       -6.03500
O        -12.80600       64.67400       -4.82900
H        -12.00000       65.57800       -8.84900
H        -11.94400       63.81400       -8.85800
H        -13.58700       63.77300       -7.10900
H        -11.72000       65.90600       -6.03100
H        -11.30900       64.18000       -6.11100
H        -12.25200       64.99600       -4.11200
N        -15.00900       65.87300       -6.31300
C        -15.95400       66.97600       -6.07200
C        -16.91200       67.23400       -7.26200
O        -17.10700       68.36300       -7.69000
C        -15.17700       68.21000       -5.55400
C        -15.99100       69.14100       -4.64300
O        -16.15700       68.78400       -3.45000
O        -16.35900       70.24200       -5.09600
H        -14.91300       65.16100       -5.59700
H        -16.58800       66.65300       -5.24900
H        -17.41900       66.40000       -7.72400
H        -14.77300       68.76900       -6.40000
H        -14.32700       67.86400       -4.96300
H        -16.79000       70.81800       -4.46100
N        -21.29900       66.71400       -5.41600
C        -21.31600       67.20400       -4.02800
C        -22.44900       68.19200       -3.72400
O        -22.62600       68.59100       -2.57800
C        -19.95500       67.83100       -3.69200
C        -18.84400       66.78100       -3.63000
S        -19.07200       65.45200       -2.42300
C        -19.04600       66.41900       -0.89400
H        -20.76800       67.23800       -6.09800
H        -21.80300       65.87900       -5.68000
H        -21.48100       66.35900       -3.35900
H        -23.09100       68.53800       -4.52000
H        -20.01100       68.33400       -2.72700
H        -19.70000       68.58000       -4.44300
H        -17.92000       67.28700       -3.37700
H        -18.72300       66.33600       -4.61700
H        -19.03000       65.75100       -0.03900
H        -19.93200       67.05100       -0.84200
H        -18.15200       67.03900       -0.87400
N         -6.17500       64.63000       12.10200
C         -5.73300       66.00300       11.83000
C         -6.51700       66.61500       10.66100
O         -6.92900       65.89400        9.75000
C         -4.21200       66.02800       11.54200
C         -3.78400       65.12500       10.36800
C         -2.27300       65.06300       10.15900
O         -1.61200       64.06700       10.41800
N         -1.67500       66.08300        9.58500
H         -6.61300       64.12800       11.33900
H         -6.04900       64.20400       13.00900
H         -5.92700       66.61100       12.71500
H         -6.70800       67.67800       10.63700
H         -3.68200       65.70700       12.44000
H         -3.91300       67.05400       11.32700
H         -4.23900       65.49300        9.44900
H         -4.13700       64.11500       10.55400
H         -0.67700       66.04100        9.49800
H         -2.21400       66.88800        9.30400
N         -6.82400       68.61600        7.05500
C         -6.10700       68.60300        5.76300
C         -6.72500       69.54500        4.71300
O         -6.00000       70.11500        3.90300
C         -5.98100       67.16300        5.19300
C         -7.33800       66.42700        5.09800
C         -4.97000       66.34200        6.01200
C         -7.28800       65.06200        4.40100
H         -7.83600       68.67500        7.04700
H         -6.31700       68.56700        7.92700
H         -5.09700       68.98000        5.93100
H         -7.79300       69.70500        4.69100
H         -5.57600       67.24800        4.18400
H         -8.03100       67.04600        4.53600
H         -7.74000       66.28400        6.09800
H         -5.34900       66.16800        7.02000
H         -4.02800       66.88700        6.07900
H         -4.78500       65.38500        5.53100
H         -6.84600       65.17300        3.41500
H         -8.29600       64.66400        4.29400
H         -6.70600       64.35300        4.98700
N        -11.86700       69.26700        6.01400
C        -11.57800       67.85100        5.73900
C        -10.54900       67.36700        6.75500
O         -9.63300       68.11800        7.09300
C        -11.05300       67.61200        4.30500
C        -11.00400       66.12300        3.93500
C        -11.89200       68.31400        3.23100
H        -11.07100       69.87500        6.17000
H        -12.81300       69.61800        6.04600
H        -12.49200       67.27700        5.86400
H        -10.62200       66.37400        7.17400
H        -10.04300       68.00300        4.24000
H        -12.00500       65.69300        3.95300
H        -10.37200       65.57600        4.63000
H        -10.57600       66.00100        2.94000
H        -12.90600       67.92500        3.25500
H        -11.44600       68.14300        2.25200
H        -11.90700       69.38600        3.40900
N         -7.78700       64.00200        7.80200
C         -7.17200       62.67600        7.72500
C         -7.76100       61.85600        8.87500
O         -7.75700       62.29800       10.03000
C         -5.63300       62.78300        7.82100
C         -4.88800       61.44500        8.05600
C         -4.71800       60.63000        6.77300
C         -3.49100       61.68700        8.63100
H         -7.34900       64.67500        8.42600
H         -8.60700       64.23700        7.26100
H         -7.43600       62.20400        6.77600
H         -8.18500       60.88300        8.67600
H         -5.40600       63.44800        8.65200
H         -5.25500       63.24700        6.91000
H         -5.42200       60.83500        8.78100
H         -4.11400       61.18200        6.05500
H         -5.69400       60.42400        6.33400
H         -4.23700       59.68000        7.00300
H         -2.91400       62.31900        7.96100
H         -2.98700       60.73600        8.79600
H         -3.58500       62.18200        9.59600
O        -15.29500       62.59800       -5.59400
H        -14.84300       61.84700       -5.21000
H        -15.94200       62.21300       -6.18500
C          0.75500       59.87900        6.92900
N          0.34800       61.28100        7.12000
C          0.58700       61.64400        8.54400
C          1.19700       62.14400        6.26600
C          0.25800       62.99600        5.42600
C         -0.90600       63.58000        5.93400
C         -1.69200       64.40300        5.12900
C         -1.33600       64.67700        3.80800
C         -0.16700       64.09900        3.31100
C          0.61400       63.26300        4.10500
C         -2.24100       65.61600        2.99700
C         -1.81800       66.03100        1.60300
C         -2.94800       65.04000        1.79600
C         -4.35700       65.55000        1.48100
O         -4.68800       66.71100        1.58100
N         -5.25600       64.61700        1.04500
C         -6.60700       64.74800        0.70700
N         -7.24700       63.68200        0.32500
C         -8.55700       64.01300        0.03500
C         -9.54700       63.13400       -0.42600
C        -10.83900       63.58400       -0.64100
C        -11.19100       64.94200       -0.43500
C        -10.19800       65.82900       -0.01000
C         -8.89800       65.35000        0.22800
S         -7.51500       66.23100        0.76800
C        -12.56700       65.39000       -0.69200
C        -13.27600       64.91800       -1.79700
C        -14.53700       65.43100       -2.05700
C        -15.08900       66.37300       -1.19800
N        -14.44000       66.78900       -0.10000
C        -13.21600       66.30700        0.14800
H          0.17500       59.26300        7.60600
H          1.81400       59.78600        7.14600
H          0.55200       59.61100        5.89800
H          1.63900       61.50300        8.76700
H         -0.01800       60.99800        9.17100
H          0.30000       62.67900        8.69400
H          1.78500       61.53800        5.58600
H          1.81600       62.80100        6.86600
H         -1.19800       63.42900        6.94100
H         -2.56800       64.83800        5.53300
H          0.15600       64.29700        2.32500
H          1.49800       62.85000        3.68600
H         -2.75300       66.35400        3.60100
H         -0.91300       65.63700        1.16800
H         -2.08000       67.04100        1.31600
H         -2.77100       64.00900        1.53300
H         -4.86300       63.67700        0.87200
H         -9.30200       62.12000       -0.59600
H        -11.58000       62.89500       -0.96000
H        -10.41100       66.85800        0.12300
H        -12.86000       64.18100       -2.43000
H        -15.08200       65.10700       -2.90800
H        -16.04800       66.77500       -1.41200
H        -12.72500       66.64300        1.02300
