385
1l_active_pm6d3.log	Energy:   -1080.9128424
N         -6.50200       54.51400        5.68600
C         -6.45500       55.98500        5.64400
C         -7.61800       56.51000        4.80400
O         -7.75000       56.17000        3.63100
C         -5.11600       56.50400        5.09600
C         -3.96400       56.38000        6.10300
C         -2.66800       56.94800        5.50100
C         -1.43800       56.49000        6.29400
N         -0.18700       56.72400        5.52600
H         -5.86900       53.98700        5.09900
H         -7.15500       54.03900        6.29200
H         -6.58900       56.36900        6.65600
H         -8.33300       57.18800        5.24700
H         -5.22900       57.55900        4.84000
H         -4.86700       55.95700        4.18400
H         -3.82100       55.32800        6.35500
H         -4.21300       56.93400        7.01000
H         -2.72000       58.03900        5.49700
H         -2.57600       56.59700        4.47200
H         -1.54600       55.42100        6.50400
H         -1.41400       57.02100        7.25100
H         -0.06700       57.70800        5.31600
H         -0.21500       56.22400        4.64300
N        -10.23300       60.21900        3.93200
C        -10.49200       61.65000        3.97700
C        -11.94200       61.88100        4.40900
O        -12.87500       61.44000        3.73500
C        -10.19100       62.25700        2.60900
H        -10.72600       59.67800        3.22600
H         -9.58900       59.78100        4.57600
H         -9.82900       62.12300        4.70200
H        -12.15000       62.43400        5.31200
H        -10.82000       61.79000        1.85200
H         -9.14500       62.09500        2.35500
H        -10.39200       63.32900        2.63200
N        -14.93600       64.43200        5.12200
C        -15.50100       65.76000        4.85400
C        -16.75900       65.94800        5.70000
O        -17.70400       65.17500        5.56200
C        -15.80100       65.89200        3.35300
C        -15.84300       67.35700        2.89100
C        -17.04600       67.63400        1.98000
C        -16.82500       68.86900        1.10400
N        -16.67600       70.08300        1.93300
H        -15.42400       63.61900        4.74900
H        -14.08800       64.32700        5.66000
H        -14.77100       66.52200        5.13500
H        -16.81700       66.75500        6.41500
H        -16.75000       65.39700        3.13700
H        -15.02800       65.38100        2.77600
H        -14.92600       67.56300        2.33900
H        -15.88300       68.02900        3.75100
H        -17.94000       67.76500        2.59400
H        -17.19600       66.78200        1.31800
H        -17.67700       68.98300        0.42700
H        -15.93400       68.70200        0.48400
H        -15.88900       69.95000        2.55300
H        -17.51000       70.21200        2.49600
N        -11.99500       59.90200       -7.23800
C        -11.85700       59.69600       -5.78600
C        -13.14100       59.07000       -5.24600
O        -14.20300       59.70100       -5.25000
C        -11.50000       60.98900       -5.03000
C        -11.30000       60.70600       -3.53500
C        -10.20000       61.59500       -5.56900
H        -12.16200       60.84100       -7.58800
H        -11.92400       59.12200       -7.87500
H        -11.04100       58.99100       -5.61500
H        -13.12000       58.06300       -4.85600
H        -12.30300       61.71700       -5.14800
H        -10.50500       59.97100       -3.39400
H        -12.21900       60.32000       -3.09400
H        -11.02800       61.62200       -3.01300
H         -9.39500       60.86500       -5.48700
H         -9.93900       62.47900       -4.99300
H        -10.32300       61.88600       -6.61100
N        -14.27200       59.51700        2.18300
C        -13.64300       59.25800        0.88800
C        -12.32800       58.48500        1.03700
O        -11.68800       58.49800        2.09200
C        -13.37800       60.58600        0.15800
C        -14.60600       61.38500       -0.22000
C        -15.11400       62.35500        0.66500
C        -15.21500       61.19100       -1.47500
C        -16.23100       63.12300        0.30000
C        -16.33400       61.95900       -1.83800
C        -16.84000       62.91900       -0.94900
H        -13.79500       60.17400        2.79000
H        -15.13300       59.06600        2.45600
H        -14.31200       58.65800        0.27400
H        -12.82300       60.37800       -0.75700
H        -12.73800       61.20800        0.78200
H        -14.64100       62.51000        1.62500
H        -14.82100       60.45800       -2.16500
H        -16.62200       63.86400        0.98100
H        -16.80700       61.81000       -2.80000
H        -17.70800       63.49200       -1.22600
N        -11.86700       57.92300       -0.07800
C        -10.48200       57.49900       -0.28700
C         -9.52300       58.66800        0.01000
O         -9.68800       59.76100       -0.53200
C        -10.36900       57.01900       -1.74900
C         -8.93200       56.75400       -2.22600
C         -8.81100       56.55300       -3.74500
O         -7.76700       56.01300       -4.17700
O         -9.72500       56.91600       -4.52400
H        -12.45900       57.97100       -0.90200
H        -10.24500       56.67100        0.38200
H        -10.82200       57.77500       -2.39000
H        -10.94700       56.10000       -1.85900
H         -8.55900       55.86600       -1.71100
H         -8.29300       57.59300       -1.95500
H         -9.55600       56.74700       -5.45400
N         -8.51000       58.45500        0.85700
C         -7.48200       59.46800        1.11600
C         -6.45600       59.54300       -0.02300
O         -5.91100       58.52600       -0.44800
C         -6.80000       59.18000        2.45500
C         -5.66200       60.11700        2.79800
C         -5.92300       61.44800        3.17900
C         -4.33500       59.65600        2.72200
C         -4.85600       62.31200        3.47900
C         -3.27200       60.51500        3.04100
C         -3.53400       61.84200        3.41000
H         -8.39300       57.53900        1.26900
H         -7.96800       60.44000        1.18800
H         -6.42100       58.15800        2.43800
H         -7.53900       59.24800        3.24400
H         -6.94100       61.80700        3.24100
H         -4.13200       58.64100        2.40800
H         -5.04800       63.33500        3.76500
H         -2.25100       60.16600        2.98200
H         -2.71200       62.49800        3.64000
N         -6.11000       60.76300       -0.44300
C         -5.13300       61.01900       -1.50700
C         -3.86100       61.62900       -0.90800
O         -3.85300       62.77400       -0.46000
C         -5.75800       61.93100       -2.57100
C         -7.05900       61.37500       -3.17400
S         -6.88800       59.85400       -4.14900
C         -5.89500       60.45600       -5.53900
H         -6.56800       61.56500       -0.02900
H         -4.86500       60.08200       -1.99600
H         -5.03600       62.08900       -3.36900
H         -5.96400       62.89700       -2.11900
H         -7.50000       62.13600       -3.81300
H         -7.77100       61.18700       -2.37000
H         -5.73800       59.64500       -6.24800
H         -4.93000       60.79700       -5.17600
H         -6.40500       61.28200       -6.03300
N         -2.78300       60.85200       -0.84900
C         -1.57300       61.16700       -0.07200
C         -0.76200       62.38900       -0.51200
O         -0.07700       62.96000        0.33000
C         -0.66100       59.93700        0.02900
C         -0.51800       59.13100       -1.27200
C          0.31100       57.87000       -1.04300
O          0.12400       57.23800        0.02700
O          1.12000       57.58700       -1.95000
H         -2.86100       59.91000       -1.20700
H         -1.88700       61.40500        0.94200
H         -1.07100       59.29500        0.80700
H          0.33300       60.25400        0.34900
H         -0.04300       59.76000       -2.02800
H         -1.49800       58.83000       -1.64700
H          1.64600       56.80000       -1.79400
N         -0.88800       62.87300       -1.74900
C         -0.14200       64.05600       -2.19900
C         -1.00100       65.33000       -2.29600
O         -0.51000       66.36600       -2.73900
C          0.63200       63.72200       -3.47800
C          1.70400       62.68400       -3.28100
C          2.87200       62.85900       -2.59000
N          1.68500       61.37900       -3.72600
N          3.57100       61.65000       -2.60900
C          2.80100       60.77700       -3.28200
H         -1.50200       62.41000       -2.40900
H          0.61200       64.30000       -1.45000
H          1.10400       64.62800       -3.85800
H         -0.06200       63.34500       -4.21500
H          0.94800       60.90800       -4.24500
H          3.18400       63.76600       -2.09100
H          3.04200       59.73200       -3.43400
N         -2.25300       65.29400       -1.82100
C         -3.13600       66.46400       -1.79000
C         -3.63800       66.88900       -3.17200
O         -3.74200       66.06500       -4.08300
H         -2.60500       64.41100       -1.47500
H         -2.59900       67.30200       -1.34400
H         -4.00300       66.24500       -1.16900
H         -3.90300       67.92000       -3.35200
N         -7.01400       65.52000       -7.37600
C         -6.11400       65.09100       -6.30100
C         -5.04500       64.11000       -6.79400
O         -5.29700       63.31400       -7.69400
C         -6.93900       64.49500       -5.15000
C         -7.63100       65.56000       -4.27300
C         -9.12000       65.26700       -4.11700
C         -7.04200       65.58100       -2.86600
H         -7.50800       64.79300       -7.88800
H         -7.14000       66.49700       -7.59900
H         -5.57200       65.95300       -5.91700
H         -4.06200       64.11900       -6.34600
H         -6.26600       63.90800       -4.52700
H         -7.67700       63.80800       -5.56900
H         -7.51500       66.54900       -4.71400
H         -9.26400       64.29400       -3.64600
H         -9.57600       65.28000       -5.10300
H         -9.58300       66.03900       -3.50100
H         -7.24900       64.63800       -2.37000
H         -7.48000       66.39500       -2.29200
H         -5.96900       65.72100       -2.91800
N        -12.22900       64.68300       -8.39700
C        -13.06000       64.71500       -7.18800
C        -14.10800       65.82700       -7.27600
O        -14.09100       66.61100       -8.22700
C        -12.15000       64.89500       -5.96900
O        -12.84500       64.68400       -4.75600
H        -11.97700       65.57800       -8.79400
H        -11.92500       63.81300       -8.81100
H        -13.58800       63.77000       -7.07900
H        -11.73200       65.89900       -5.97100
H        -11.33800       64.17100       -6.03300
H        -12.26100       64.91400       -4.02700
N        -15.01600       65.87900       -6.30000
C        -15.95700       66.98900       -6.07400
C        -16.91600       67.23900       -7.26400
O        -17.12300       68.36700       -7.68700
C        -15.17000       68.22500       -5.57500
C        -15.98400       69.20200       -4.71600
O        -16.24700       68.86000       -3.53800
O        -16.24200       70.32700       -5.18700
H        -14.91500       65.18300       -5.56800
H        -16.59000       66.68100       -5.24500
H        -17.41300       66.40100       -7.72900
H        -14.73900       68.74800       -6.42900
H        -14.34000       67.88200       -4.95400
H        -16.66600       70.93500       -4.57700
N        -21.30000       66.71400       -5.41500
C        -21.31700       67.20300       -4.02700
C        -22.44700       68.19400       -3.72300
O        -22.62500       68.59300       -2.57700
C        -19.95300       67.82600       -3.69100
C        -18.84400       66.77200       -3.63400
S        -19.07400       65.44100       -2.42900
C        -18.99800       66.40800       -0.90200
H        -20.77000       67.23800       -6.09600
H        -21.80400       65.88000       -5.67900
H        -21.48300       66.35800       -3.35800
H        -23.08900       68.54000       -4.51900
H        -20.00700       68.32700       -2.72500
H        -19.69700       68.57700       -4.44100
H        -17.91800       67.27400       -3.38000
H        -18.72600       66.33100       -4.62200
H        -19.00400       65.74000       -0.04600
H        -19.86000       67.07300       -0.84300
H        -18.07700       66.99000       -0.89300
N         -6.18800       64.63300       12.10600
C         -5.75500       66.00900       11.83800
C         -6.52900       66.61800       10.66200
O         -6.93600       65.89500        9.75000
C         -4.23400       66.04500       11.56100
C         -3.79800       65.15300       10.38500
C         -2.28500       65.07700       10.23000
O         -1.64000       64.13100       10.64800
N         -1.66400       66.04300        9.58800
H         -6.61800       64.12900       11.34100
H         -6.06200       64.20700       13.01400
H         -5.95800       66.61600       12.72200
H         -6.71800       67.68100       10.63300
H         -3.70700       65.72000       12.46000
H         -3.93500       67.07300       11.35200
H         -4.22500       65.53300        9.45800
H         -4.16300       64.14200       10.55000
H         -0.66700       65.95600        9.50500
H         -2.18500       66.81800        9.21200
N         -6.82700       68.61700        7.05200
C         -6.10900       68.60400        5.76100
C         -6.72800       69.54600        4.71000
O         -6.00300       70.11300        3.89800
C         -5.98200       67.16300        5.19200
C         -7.33900       66.42700        5.09600
C         -4.97100       66.34400        6.01300
C         -7.28700       65.06200        4.40000
H         -7.83800       68.67200        7.04400
H         -6.32000       68.57100        7.92500
H         -5.09900       68.98100        5.92900
H         -7.79600       69.70600        4.68900
H         -5.57700       67.24800        4.18200
H         -8.03100       67.04500        4.53400
H         -7.74000       66.28400        6.09700
H         -5.34900       66.17100        7.02000
H         -4.02800       66.88800        6.07900
H         -4.78500       65.38600        5.53300
H         -6.84600       65.17300        3.41300
H         -8.29500       64.66300        4.29300
H         -6.70500       64.35400        4.98600
N        -11.86800       69.26600        6.00900
C        -11.58000       67.84900        5.73500
C        -10.55000       67.36600        6.75000
O         -9.63400       68.11700        7.08500
C        -11.05500       67.60800        4.30100
C        -11.00300       66.11900        3.93400
C        -11.89800       68.30500        3.22600
H        -11.07200       69.87300        6.16500
H        -12.81400       69.61800        6.03900
H        -12.49400       67.27600        5.86100
H        -10.62300       66.37400        7.17000
H        -10.04600       68.00200        4.23400
H        -12.00300       65.68600        3.95400
H        -10.36900       65.57500        4.63000
H        -10.57600       65.99700        2.93900
H        -12.91100       67.91500        3.25400
H        -11.45400       68.12500        2.24700
H        -11.91100       69.37800        3.39900
N         -7.78600       64.00300        7.80100
C         -7.17200       62.67700        7.72500
C         -7.76200       61.85800        8.87400
O         -7.75600       62.29900       10.03000
C         -5.63400       62.78400        7.82200
C         -4.89000       61.44600        8.06000
C         -4.71700       60.63100        6.77800
C         -3.50000       61.69000        8.64600
H         -7.35000       64.67500        8.42600
H         -8.60500       64.23900        7.25800
H         -7.43400       62.20500        6.77500
H         -8.18700       60.88600        8.67500
H         -5.40600       63.45100        8.65200
H         -5.25300       63.24600        6.91000
H         -5.42800       60.83600        8.78200
H         -4.10500       61.18300        6.06500
H         -5.69000       60.42500        6.33200
H         -4.23200       59.68400        7.00900
H         -2.91400       62.31500        7.97800
H         -2.99100       60.74200        8.81300
H         -3.59300       62.19000        9.60900
O        -15.29200       62.56500       -5.57600
H        -14.84600       61.79200       -5.22900
H        -15.93600       62.21400       -6.19200
C          0.35800       61.21100        7.15900
O          0.89300       61.96600        6.04500
C          0.17200       62.91400        5.34400
C         -0.96100       63.52100        5.88100
C         -1.70100       64.40500        5.09900
C         -1.31700       64.70400        3.78900
C         -0.14100       64.12800        3.29200
C          0.60000       63.23600        4.06200
C         -2.21200       65.65100        2.98200
C         -1.80000       66.05100        1.58100
C         -2.92800       65.06200        1.79200
C         -4.33700       65.56400        1.47700
O         -4.67100       66.72600        1.55900
N         -5.23300       64.62200        1.05400
C         -6.58100       64.74700        0.70900
N         -7.21800       63.67900        0.32900
C         -8.52500       64.01200        0.02400
C         -9.51500       63.13800       -0.44700
C        -10.80000       63.59700       -0.68000
C        -11.14800       64.95500       -0.47600
C        -10.15500       65.83400       -0.04200
C         -8.86200       65.35000        0.20900
S         -7.48600       66.23100        0.76000
N        -14.58600       65.54200       -1.35300
C        -13.47800       64.78000       -1.44600
C        -12.52200       65.40400       -0.70700
C        -13.13900       66.54900       -0.19400
N        -14.39000       66.64000       -0.55700
H         -0.72000       61.12400        7.03400
H          0.81800       60.22500        7.13800
H          0.60400       61.72600        8.08600
H         -1.25700       63.32000        6.87600
H         -2.56800       64.85200        5.50700
H          0.20600       64.35500        2.32100
H          1.48200       62.79700        3.67200
H         -2.72300       66.39000        3.58600
H         -0.89700       65.65100        1.14700
H         -2.06500       67.05800        1.28600
H         -2.75100       64.02700        1.54200
H         -4.83700       63.68100        0.89000
H         -9.27500       62.12100       -0.61100
H        -11.54300       62.91500       -1.00800
H        -10.36600       66.86200        0.09700
H        -15.48600       65.32600       -1.82800
H        -13.46200       63.88200       -2.00900
H        -12.66500       67.26700        0.42300
