451
1m_active_pm6d3.log	Energy:   -1251.0829546
N         -6.50300       54.51300        5.68600
C         -6.45700       55.98300        5.64400
C         -7.61900       56.50900        4.80400
O         -7.75100       56.16900        3.63000
C         -5.11700       56.50400        5.09600
C         -3.96800       56.38000        6.10700
C         -2.67300       56.95200        5.50900
C         -1.44600       56.49800        6.30800
N         -0.19300       56.74600        5.55000
H         -5.86900       53.98600        5.09900
H         -7.15700       54.03700        6.29100
H         -6.59100       56.36700        6.65500
H         -8.33400       57.18700        5.24700
H         -5.23100       57.55900        4.84000
H         -4.86600       55.95600        4.18600
H         -3.82400       55.32900        6.35700
H         -4.22000       56.93300        7.01300
H         -2.72700       58.04300        5.50400
H         -2.57600       56.60100        4.48000
H         -1.54900       55.42800        6.51300
H         -1.43100       57.02700        7.26700
H         -0.08200       57.73300        5.35400
H         -0.21300       56.25200        4.66300
N        -10.23300       60.21700        3.93500
C        -10.49100       61.64800        3.98100
C        -11.94100       61.87900        4.41200
O        -12.87400       61.44500        3.73400
C        -10.19100       62.25500        2.61400
H        -10.72700       59.67700        3.22700
H         -9.59100       59.77700        4.57800
H         -9.82900       62.12000        4.70700
H        -12.14900       62.42800        5.31800
H        -10.82200       61.78800        1.85800
H         -9.14600       62.09100        2.35900
H        -10.39100       63.32600        2.63700
N        -14.93100       64.43200        5.12100
C        -15.49900       65.76100        4.86500
C        -16.75400       65.94200        5.71500
O        -17.69600       65.16600        5.58100
C        -15.81100       65.90600        3.36800
C        -15.87900       67.38100        2.94100
C        -17.06000       67.64700        1.99700
C        -16.83200       68.88300        1.12500
N        -16.68000       70.09400        1.95600
H        -15.41900       63.62000        4.74600
H        -14.07900       64.32500        5.65400
H        -14.76900       66.52200        5.14700
H        -16.81300       66.74900        6.43100
H        -16.75500       65.40300        3.15200
H        -15.03400       65.41600        2.77700
H        -14.94900       67.62900        2.43300
H        -15.96600       68.03200        3.81300
H        -17.96900       67.77000        2.59000
H        -17.18600       66.79200        1.33300
H        -17.68000       69.00100        0.44400
H        -15.93700       68.71600        0.51200
H        -16.55900       70.88900        1.34500
H        -15.89300       69.95500        2.57500
N        -23.58200       58.00800       -5.62600
C        -22.18000       58.41400       -5.77300
C        -21.20800       57.23700       -5.58500
O        -20.16900       57.19500       -6.23600
C        -21.85200       59.55500       -4.79700
C        -20.88200       60.57600       -5.40600
S        -19.78400       61.40900       -4.22200
C        -20.99200       62.27800       -3.18300
H        -24.11500       58.36600       -4.83700
H        -24.01000       57.38300       -6.29500
H        -22.05300       58.78200       -6.78900
H        -21.43900       56.45100       -4.88200
H        -21.41200       59.12700       -3.89900
H        -22.76100       60.08500       -4.51500
H        -21.46800       61.33200       -5.93200
H        -20.25000       60.07300       -6.13900
H        -20.46800       62.80300       -2.38500
H        -21.69100       61.56700       -2.74300
H        -21.54500       62.99800       -3.78300
N        -11.99300       59.90300       -7.23900
C        -11.85600       59.69700       -5.78700
C        -13.13900       59.07000       -5.24800
O        -14.20100       59.70200       -5.25100
C        -11.50300       60.99100       -5.03100
C        -11.30300       60.71000       -3.53500
C        -10.20400       61.60100       -5.57000
H        -12.15800       60.84200       -7.59000
H        -11.92400       59.12200       -7.87600
H        -11.03900       58.99300       -5.61500
H        -13.11900       58.06300       -4.86000
H        -12.30700       61.71500       -5.15000
H        -10.50600       59.97600       -3.39400
H        -12.22100       60.32200       -3.09600
H        -11.03300       61.62700       -3.01400
H         -9.39500       60.87500       -5.48400
H         -9.94900       62.48900       -4.99700
H        -10.32700       61.88700       -6.61300
N        -19.06200       62.71300        5.31800
C        -18.77300       61.87000        4.15900
C        -17.34700       61.32200        4.28200
O        -16.42700       62.07100        4.61600
C        -18.92100       62.70200        2.86600
C        -20.22200       62.44500        2.09100
C        -21.44000       63.09300        2.73900
C        -20.13200       63.03100        0.68900
H        -18.52600       63.57200        5.37900
H        -19.74900       62.45700        6.01200
H        -19.45800       61.02100        4.13300
H        -17.14900       60.28000        4.07700
H        -18.09600       62.43700        2.20700
H        -18.82900       63.76700        3.09000
H        -20.37600       61.37600        2.00200
H        -21.36600       64.16800        2.62600
H        -21.50400       62.82500        3.79300
H        -22.34500       62.76400        2.22900
H        -19.99100       64.10400        0.75100
H        -21.04800       62.81900        0.13800
H        -19.29800       62.58300        0.16000
N        -14.27300       59.51900        2.18200
C        -13.64500       59.26000        0.88800
C        -12.32900       58.48700        1.03700
O        -11.69000       58.49900        2.09200
C        -13.38500       60.58800        0.15600
C        -14.61600       61.38500       -0.22100
C        -15.11700       62.36500        0.65700
C        -15.23600       61.17900       -1.46800
C        -16.23600       63.13100        0.29200
C        -16.36400       61.93700       -1.82700
C        -16.86000       62.91200       -0.94700
H        -13.79700       60.17800        2.78900
H        -15.13400       59.06700        2.45700
H        -14.31400       58.65900        0.27400
H        -12.83100       60.38100       -0.76000
H        -12.74500       61.21200        0.77800
H        -14.63700       62.53000        1.61200
H        -14.84500       60.44100       -2.15500
H        -16.61600       63.88400        0.96600
H        -16.84200       61.78000       -2.78500
H        -17.72700       63.48800       -1.22500
N        -11.86900       57.92600       -0.07900
C        -10.48400       57.50100       -0.28800
C         -9.52600       58.67000        0.00900
O         -9.69000       59.76400       -0.53400
C        -10.37300       57.02200       -1.74900
C         -8.93700       56.75800       -2.22900
C         -8.81900       56.56100       -3.74800
O         -7.77600       56.02000       -4.18200
O         -9.73400       56.92600       -4.52500
H        -12.46100       57.97500       -0.90300
H        -10.24800       56.67300        0.38100
H        -10.82700       57.77800       -2.38900
H        -10.95000       56.10200       -1.85900
H         -8.56400       55.86800       -1.71700
H         -8.29600       57.59500       -1.95600
H         -9.56700       56.75800       -5.45500
N         -8.51200       58.45700        0.85500
C         -7.48400       59.46900        1.11400
C         -6.45700       59.54400       -0.02400
O         -5.91300       58.52700       -0.45000
C         -6.80300       59.18000        2.45300
C         -5.66500       60.11700        2.79600
C         -5.92500       61.44800        3.17600
C         -4.33800       59.65400        2.72000
C         -4.85800       62.31200        3.47400
C         -3.27500       60.51300        3.03700
C         -3.53600       61.84100        3.40500
H         -8.39600       57.54100        1.26700
H         -7.97000       60.44200        1.18700
H         -6.42400       58.15800        2.43700
H         -7.54200       59.24900        3.24300
H         -6.94200       61.80700        3.24000
H         -4.13600       58.63900        2.40800
H         -5.04800       63.33500        3.76200
H         -2.25400       60.16400        2.98100
H         -2.71400       62.49600        3.63500
N         -6.10900       60.76500       -0.44200
C         -5.13300       61.02100       -1.50500
C         -3.86000       61.63000       -0.90600
O         -3.85300       62.77600       -0.45700
C         -5.75700       61.93200       -2.57000
C         -7.05800       61.37500       -3.17200
S         -6.88700       59.85300       -4.14700
C         -5.89600       60.45600       -5.53800
H         -6.56700       61.56600       -0.02700
H         -4.86400       60.08300       -1.99400
H         -5.03600       62.08900       -3.36800
H         -5.96300       62.89800       -2.11800
H         -7.49900       62.13600       -3.81200
H         -7.77100       61.18800       -2.36900
H         -5.74000       59.64500       -6.24800
H         -4.93000       60.79700       -5.17600
H         -6.40700       61.28200       -6.03100
N         -2.78200       60.85400       -0.84900
C         -1.57200       61.16800       -0.07200
C         -0.75500       62.38600       -0.51300
O         -0.05400       62.94500        0.32400
C         -0.66300       59.93600        0.03200
C         -0.51700       59.13000       -1.26700
C          0.31700       57.87200       -1.03600
O          0.13800       57.24700        0.03900
O          1.12700       57.59100       -1.94200
H         -2.85900       59.91300       -1.20900
H         -1.88600       61.40900        0.94200
H         -1.07500       59.29500        0.81000
H          0.33200       60.25100        0.35500
H         -0.04400       59.75900       -2.02500
H         -1.49600       58.82600       -1.64200
H          1.66000       56.80900       -1.78100
N         -0.88800       62.87500       -1.74700
C         -0.14200       64.05800       -2.19900
C         -1.00100       65.33100       -2.29700
O         -0.50900       66.36700       -2.73900
C          0.63300       63.72200       -3.47800
C          1.70400       62.68400       -3.28000
C          2.87100       62.85900       -2.58700
N          1.68500       61.37900       -3.72300
N          3.56900       61.65000       -2.60300
C          2.80100       60.77700       -3.27700
H         -1.50800       62.41700       -2.40500
H          0.61300       64.30200       -1.45100
H          1.10400       64.62800       -3.85800
H         -0.06200       63.34400       -4.21500
H          0.94900       60.90700       -4.24300
H          3.18300       63.76700       -2.08900
H          3.04200       59.73200       -3.42800
N         -2.25200       65.29500       -1.82100
C         -3.13500       66.46500       -1.79000
C         -3.63700       66.89000       -3.17300
O         -3.74000       66.06600       -4.08400
H         -2.60500       64.41200       -1.47700
H         -2.59900       67.30400       -1.34400
H         -4.00200       66.24700       -1.16900
H         -3.90300       67.92100       -3.35200
N         -7.01800       65.51900       -7.37600
C         -6.11700       65.09100       -6.30000
C         -5.04800       64.11000       -6.79300
O         -5.30000       63.31300       -7.69300
C         -6.94100       64.49600       -5.14800
C         -7.63000       65.56100       -4.26800
C         -9.11900       65.27100       -4.11000
C         -7.04200       65.58000       -2.86100
H         -7.51000       64.79200       -7.88900
H         -7.14500       66.49700       -7.59700
H         -5.57500       65.95300       -5.91700
H         -4.06500       64.12000       -6.34600
H         -6.26700       63.90800       -4.52600
H         -7.68000       63.80900       -5.56500
H         -7.51300       66.55000       -4.70800
H         -9.26400       64.29600       -3.64400
H         -9.57400       65.28900       -5.09600
H         -9.57900       66.04200       -3.49100
H         -7.25100       64.63700       -2.36400
H         -7.47800       66.39500       -2.28600
H         -5.96800       65.71700       -2.91300
N        -12.25500       64.68200       -8.48300
C        -13.04300       64.72900       -7.25400
C        -14.07300       65.86000       -7.32400
O        -14.01300       66.68600       -8.23600
C        -12.06300       64.90600       -6.09500
O        -12.62100       64.53100       -4.86800
H        -12.01400       65.57200       -8.89700
H        -11.96600       63.80700       -8.89600
H        -13.57600       63.78900       -7.11600
H        -11.74300       65.94200       -6.03500
H        -11.19800       64.26600       -6.26300
H        -12.06200       64.89100       -4.17300
N        -15.01500       65.88700       -6.38200
C        -15.95500       66.99700       -6.13200
C        -16.89700       67.26300       -7.32500
O        -17.04400       68.38400       -7.79000
C        -15.18600       68.21700       -5.57100
C        -16.01900       69.15300       -4.67900
O        -16.19700       68.82100       -3.48100
O        -16.37900       70.24900       -5.15200
H        -14.99800       65.13400       -5.70600
H        -16.61300       66.67400       -5.32900
H        -14.75000       68.77900       -6.39900
H        -14.35700       67.85600       -4.95900
H        -16.81200       70.83700       -4.52900
N        -17.50800       66.19600       -7.86500
C        -18.44900       66.27000       -9.00200
C        -19.92600       66.26400       -8.57800
O        -20.72400       67.06700       -9.05100
C        -18.18200       65.15400      -10.03600
C        -17.60600       63.83500       -9.54400
C        -18.44300       62.72800       -9.30100
C        -16.21100       63.69200       -9.40900
C        -17.88900       61.49600       -8.90700
C        -15.65900       62.46000       -9.01800
C        -16.49800       61.36400       -8.76100
H        -17.28700       65.29400       -7.47500
H        -18.29600       67.22300       -9.51700
H        -20.26700       65.54200       -7.85100
H        -17.49700       65.54600      -10.77600
H        -19.10700       64.94800      -10.57700
H        -19.51100       62.81500       -9.43500
H        -15.56600       64.53300       -9.61800
H        -18.52700       60.64200       -8.72700
H        -14.58900       62.34900       -8.92500
H        -16.07900       60.41500       -8.45800
N        -21.33700       66.73100       -5.41700
C        -21.37700       67.22400       -4.02900
C        -22.50800       68.20700       -3.72900
O        -22.69500       68.60200       -2.58400
C        -20.02800       67.86000       -3.67400
C        -18.95300       66.79200       -3.54600
S        -19.28900       65.49700       -2.30800
C        -19.09800       66.48400       -0.81100
H        -20.79600       67.25400       -6.09100
H        -21.83600       65.89600       -5.68700
H        -21.55400       66.37900       -3.36300
H        -23.14500       68.55500       -4.52900
H        -20.10100       68.38400       -2.72100
H        -19.73800       68.58200       -4.43900
H        -18.02700       67.29400       -3.27600
H        -18.80000       66.32200       -4.51700
H        -19.10100       65.83200        0.05700
H        -19.92400       67.19000       -0.74100
H        -18.15300       67.02100       -0.85200
N         -6.19000       64.63300       12.10700
C         -5.75900       66.01100       11.84000
C         -6.53100       66.61900       10.66300
O         -6.93800       65.89600        9.75100
C         -4.23900       66.04900       11.56500
C         -3.79800       65.15800       10.39100
C         -2.28400       65.08500       10.24800
O         -1.63800       64.16000       10.70600
N         -1.66300       66.03900        9.58900
H         -6.61600       64.12900       11.34100
H         -6.06700       64.20800       13.01500
H         -5.96400       66.61700       12.72400
H         -6.71800       67.68300       10.63300
H         -3.71300       65.72500       12.46500
H         -3.94000       67.07700       11.35700
H         -4.22100       65.53800        9.46200
H         -4.16200       64.14600       10.55400
H         -0.66500       65.94900        9.51100
H         -2.18400       66.80200        9.19000
N         -6.82700       68.61600        7.05200
C         -6.10700       68.60300        5.76100
C         -6.72500       69.54500        4.71100
O         -6.00000       70.11400        3.90000
C         -5.98000       67.16300        5.19200
C         -7.33700       66.42600        5.09700
C         -4.96800       66.34300        6.01200
C         -7.28700       65.06000        4.40200
H         -7.83800       68.67100        7.04300
H         -6.32000       68.57100        7.92500
H         -5.09800       68.98000        5.93000
H         -7.79300       69.70500        4.68800
H         -5.57500       67.24700        4.18300
H         -8.03000       67.04500        4.53400
H         -7.73900       66.28500        6.09800
H         -5.34600       66.17000        7.02000
H         -4.02600       66.88700        6.07900
H         -4.78100       65.38600        5.53300
H         -6.84500       65.17100        3.41600
H         -8.29500       64.66300        4.29500
H         -6.70500       64.35300        4.98900
N        -11.86700       69.26700        6.01500
C        -11.57800       67.85000        5.73900
C        -10.54900       67.36600        6.75400
O         -9.63400       68.11800        7.09400
C        -11.05200       67.61300        4.30500
C        -11.00600       66.12400        3.93300
C        -11.89000       68.31700        3.23200
H        -11.07100       69.87400        6.17100
H        -12.81400       69.61700        6.04700
H        -12.49200       67.27600        5.86400
H        -10.62100       66.37300        7.17300
H        -10.04200       68.00200        4.24100
H        -12.00700       65.69400        3.95200
H        -10.37400       65.57600        4.62800
H        -10.57700       66.00300        2.93900
H        -12.90400       67.92900        3.25400
H        -11.44300       68.14800        2.25300
H        -11.90400       69.38900        3.41200
N         -7.78500       64.00300        7.80200
C         -7.17100       62.67800        7.72500
C         -7.76000       61.85800        8.87500
O         -7.75900       62.30000       10.03000
C         -5.63200       62.78600        7.82300
C         -4.88700       61.44800        8.06000
C         -4.71900       60.63200        6.77800
C         -3.49700       61.69500        8.64400
H         -7.34800       64.67600        8.42600
H         -8.60400       64.23800        7.26000
H         -7.43300       62.20500        6.77600
H         -8.18100       60.88300        8.67600
H         -5.40400       63.45300        8.65200
H         -5.25200       63.24700        6.91000
H         -5.42400       60.83900        8.78400
H         -4.10600       61.18200        6.06500
H         -5.69200       60.42500        6.33500
H         -4.23200       59.68500        7.01000
H         -2.90800       62.31500        7.97200
H         -2.98700       60.74700        8.81100
H         -3.58700       62.19800        9.60500
O        -15.21800       62.52500       -5.59700
H        -14.81200       61.71300       -5.29400
H        -15.93700       62.23900       -6.16100
C          0.23500       62.93500        5.27900
O          0.96500       62.04000        6.03700
C          2.23800       61.50900        5.58800
C         -0.91000       63.49300        5.83700
C         -1.68300       64.37500        5.08300
C         -1.32300       64.70800        3.77300
C         -0.15000       64.15900        3.24500
C          0.62400       63.27500        3.98500
C         -2.23200       65.65700        2.98600
C         -1.82600       66.08300        1.59000
C         -2.94100       65.07900        1.78800
C         -4.35200       65.57600        1.47600
O         -4.69000       66.73500        1.56600
N         -5.24200       64.63200        1.04700
C         -6.59100       64.75600        0.71200
N         -7.22700       63.68800        0.33200
C         -8.53700       64.01600        0.05000
C         -9.52800       63.13500       -0.40600
C        -10.82200       63.58300       -0.60200
C        -11.17400       64.93900       -0.38400
C        -10.18100       65.82900        0.02800
C         -8.88000       65.35200        0.24900
S         -7.49900       66.23700        0.77800
C        -12.54700       65.38500       -0.62800
C        -13.23700       64.91500       -1.73800
C        -14.50200       65.40300       -2.01100
C        -15.06600       66.35200       -1.15700
N        -14.43100       66.76800       -0.05100
C        -13.20800       66.29300        0.21100
C        -15.15100       64.90000       -3.27400
O        -16.48700       65.32800       -3.31700
H          2.65000       60.88200        6.37600
H          2.90400       62.34900        5.38300
H          2.06100       60.92700        4.68300
H         -1.18300       63.24800        6.83000
H         -2.55500       64.79500        5.51100
H          0.17600       64.40200        2.27200
H          1.50000       62.87200        3.55100
H         -2.74900       66.38100        3.60200
H         -0.92400       65.69900        1.13800
H         -2.10000       67.09100        1.31000
H         -2.75600       64.04800        1.52600
H         -4.84300       63.69300        0.87900
H         -9.28200       62.12300       -0.58500
H        -11.56500       62.89400       -0.91900
H        -10.39600       66.85700        0.16200
H        -12.79500       64.20100       -2.38300
H        -16.98500       65.00900       -2.54800
H        -15.11400       63.82200       -3.31700
H        -14.63700       65.38700       -4.07700
H        -16.01700       66.76800       -1.38000
H        -12.72600       66.62800        1.08900
