437
1n_active_pm6d3.log	Energy:   -1099.9097183
N         -6.50900       54.51000        5.68300
C         -6.46400       55.98000        5.64200
C         -7.62700       56.50500        4.80300
O         -7.75900       56.16600        3.62900
C         -5.12700       56.50000        5.09200
C         -3.97600       56.36700        6.10000
C         -2.67700       56.91200        5.48900
C         -1.45400       56.41100        6.26500
N         -0.21600       56.53100        5.44800
H         -5.88000       53.98300        5.09300
H         -7.15900       54.03400        6.29300
H         -6.59700       56.36400        6.65400
H         -8.34300       57.18200        5.24700
H         -5.23700       57.55600        4.84000
H         -4.88100       55.95400        4.17900
H         -3.84700       55.31500        6.35700
H         -4.21600       56.93000        7.00300
H         -2.70400       58.00400        5.49500
H         -2.60500       56.56900        4.45500
H         -1.61700       55.35900        6.52000
H         -1.37400       56.97100        7.20300
H         -0.05800       57.48500        5.15800
H         -0.30500       55.98000        4.60000
N        -10.23300       60.21900        3.93400
C        -10.48900       61.65100        3.97600
C        -11.94000       61.88500        4.40300
O        -12.87300       61.45500        3.72300
C        -10.18500       62.25600        2.60700
H        -10.72700       59.67800        3.22800
H         -9.59100       59.78100        4.57800
H         -9.82700       62.12300        4.70200
H        -12.14800       62.43300        5.31000
H        -10.81500       61.78900        1.85000
H         -9.14000       62.09100        2.35400
H        -10.38400       63.32800        2.62900
N        -14.93400       64.43100        5.11700
C        -15.50100       65.76100        4.86200
C        -16.75600       65.94200        5.71200
O        -17.69900       65.16700        5.57600
C        -15.81400       65.90900        3.36600
C        -15.88600       67.38500        2.94600
C        -17.06700       67.65300        2.00200
C        -16.84000       68.89300        1.13400
N        -16.68700       70.10100        1.96800
H        -15.42500       63.61900        4.74700
H        -14.07900       64.32400        5.64500
H        -14.77100       66.52100        5.14500
H        -16.81400       66.74700        6.42900
H        -16.75700       65.40400        3.14900
H        -15.03600       65.42300        2.77400
H        -14.95600       67.63900        2.44200
H        -15.97700       68.03200        3.82000
H        -17.97600       67.77400        2.59500
H        -17.19500       66.80100        1.33500
H        -17.68900       69.01300        0.45400
H        -15.94600       68.72900        0.52000
H        -16.56500       70.89700        1.35900
H        -15.89900       69.96000        2.58700
N        -23.58100       58.00800       -5.62400
C        -22.17900       58.41500       -5.77100
C        -21.20600       57.23900       -5.58100
O        -20.16400       57.20200       -6.22600
C        -21.85200       59.55700       -4.79600
C        -20.88300       60.57800       -5.40700
S        -19.78200       61.41300       -4.22700
C        -20.98700       62.27700       -3.18100
H        -24.11500       58.36600       -4.83600
H        -24.00800       57.38400       -6.29300
H        -22.05200       58.78200       -6.78800
H        -21.44000       56.44900       -4.88300
H        -21.41100       59.13000       -3.89800
H        -22.76100       60.08600       -4.51300
H        -21.47000       61.33300       -5.93200
H        -20.25300       60.07500       -6.14200
H        -20.46100       62.80700       -2.38700
H        -21.68000       61.56400       -2.73600
H        -21.54800       62.99300       -3.77800
N        -12.01000       59.90400       -7.23100
C        -11.86200       59.69200       -5.78000
C        -13.13500       59.04900       -5.23400
O        -14.20800       59.66000       -5.23300
C        -11.50500       60.98400       -5.02300
C        -11.30500       60.70300       -3.52900
C        -10.20200       61.58600       -5.56200
H        -12.18700       60.84300       -7.57600
H        -11.93500       59.12800       -7.87200
H        -11.03900       58.99200       -5.61800
H        -13.09600       58.04400       -4.84100
H        -12.30500       61.71500       -5.14200
H        -10.51100       59.96700       -3.38700
H        -12.22500       60.31900       -3.08800
H        -11.03300       61.61900       -3.00800
H         -9.39900       60.85400       -5.48100
H         -9.93800       62.46900       -4.98500
H        -10.32400       61.87800       -6.60400
N        -14.26500       59.50900        2.19200
C        -13.63600       59.25200        0.89800
C        -12.32000       58.48100        1.04400
O        -11.67900       58.49400        2.09900
C        -13.37700       60.58100        0.16900
C        -14.61600       61.37000       -0.19100
C        -15.09500       62.36700        0.68000
C        -15.27500       61.12300       -1.40900
C        -16.22000       63.12700        0.32400
C        -16.42200       61.85900       -1.74500
C        -16.87700       62.87400       -0.89000
H        -13.78900       60.16700        2.80000
H        -15.12600       59.05800        2.46500
H        -14.30500       58.65200        0.28300
H        -12.83200       60.37800       -0.75300
H        -12.73400       61.20500        0.78800
H        -14.59100       62.55200        1.61700
H        -14.89600       60.37600       -2.09200
H        -16.58100       63.90100        0.98400
H        -16.93400       61.67200       -2.67800
H        -17.73600       63.45700       -1.17100
N        -11.86200       57.91900       -0.07100
C        -10.47800       57.49400       -0.28300
C         -9.51700       58.66200        0.01200
O         -9.67800       59.75400       -0.53400
C        -10.37200       57.01700       -1.74600
C         -8.93900       56.75400       -2.23000
C         -8.82800       56.55700       -3.75000
O         -7.78500       56.02000       -4.18800
O         -9.74800       56.92100       -4.52200
H        -12.45500       57.96900       -0.89400
H        -10.24100       56.66500        0.38300
H        -10.82800       57.77400       -2.38300
H        -10.95000       56.09700       -1.85500
H         -8.56200       55.86400       -1.72000
H         -8.29700       57.59200       -1.96000
H         -9.58600       56.75500       -5.45300
N         -8.50600       58.44900        0.86000
C         -7.47900       59.46300        1.11800
C         -6.45300       59.53900       -0.02100
O         -5.90200       58.52300       -0.44100
C         -6.79800       59.17600        2.45800
C         -5.66100       60.11300        2.80300
C         -5.92300       61.44300        3.18700
C         -4.33400       59.65300        2.72200
C         -4.85500       62.30800        3.48400
C         -3.27100       60.51300        3.03600
C         -3.53400       61.83900        3.40800
H         -8.39100       57.53500        1.27500
H         -7.96600       60.43500        1.19000
H         -6.42000       58.15400        2.44200
H         -7.53900       59.24500        3.24600
H         -6.94000       61.80100        3.25000
H         -4.13400       58.64100        2.40000
H         -5.04800       63.33100        3.76700
H         -2.25200       60.16600        2.96000
H         -2.71300       62.50000        3.62800
N         -6.11400       60.75900       -0.44600
C         -5.13800       61.01600       -1.51100
C         -3.86600       61.62500       -0.91500
O         -3.86300       62.76600       -0.45500
C         -5.76200       61.92900       -2.57400
C         -7.06300       61.37300       -3.17700
S         -6.88900       59.85200       -4.15100
C         -5.89600       60.45500       -5.54000
H         -6.57800       61.56000       -0.03700
H         -4.87000       60.07800       -2.00100
H         -5.04100       62.08900       -3.37100
H         -5.96900       62.89400       -2.11900
H         -7.50400       62.13500       -3.81600
H         -7.77600       61.18600       -2.37400
H         -5.73700       59.64400       -6.25000
H         -4.93100       60.79800       -5.17700
H         -6.40700       61.28100       -6.03500
N         -2.78500       60.85300       -0.86500
C         -1.58000       61.16500       -0.08000
C         -0.75900       62.38300       -0.51200
O         -0.06100       62.93500        0.33400
C         -0.67200       59.93400        0.03500
C         -0.51900       59.12000       -1.25900
C          0.31300       57.86300       -1.01300
O          0.14800       57.26200        0.08000
O          1.11100       57.56100       -1.92200
H         -2.85800       59.91400       -1.23300
H         -1.90300       61.40800        0.93000
H         -1.08900       59.29800        0.81400
H          0.32100       60.25000        0.36200
H         -0.04000       59.74400       -2.01600
H         -1.49600       58.81500       -1.63700
H          1.64600       56.78300       -1.75100
N         -0.88700       62.87700       -1.74400
C         -0.13900       64.05800       -2.19300
C         -0.99700       65.33200       -2.29300
O         -0.50500       66.36800       -2.73500
C          0.63400       63.72300       -3.47300
C          1.70500       62.68500       -3.27900
C          2.87400       62.85900       -2.59000
N          1.68500       61.37900       -3.72300
N          3.57200       61.65000       -2.60800
C          2.80100       60.77800       -3.28000
H         -1.50600       62.42000       -2.40400
H          0.61500       64.30000       -1.44400
H          1.10600       64.62900       -3.85400
H         -0.06200       63.34700       -4.21000
H          0.94700       60.90900       -4.24300
H          3.18800       63.76700       -2.09400
H          3.04200       59.73200       -3.43200
N         -2.25000       65.29600       -1.82100
C         -3.13200       66.46700       -1.79000
C         -3.63200       66.89200       -3.17300
O         -3.73300       66.06900       -4.08500
H         -2.60600       64.41200       -1.48200
H         -2.59500       67.30400       -1.34300
H         -3.99900       66.24900       -1.16900
H         -3.89900       67.92300       -3.35200
N         -7.01300       65.52500       -7.37700
C         -6.11200       65.09300       -6.30200
C         -5.04400       64.11200       -6.79600
O         -5.29700       63.31400       -7.69500
C         -6.93300       64.49500       -5.14900
C         -7.62000       65.56000       -4.26600
C         -9.10500       65.26100       -4.10300
C         -7.02700       65.58200       -2.86100
H         -7.50700       64.80000       -7.89200
H         -7.13800       66.50300       -7.59700
H         -5.56900       65.95400       -5.91800
H         -4.06100       64.12100       -6.34900
H         -6.25900       63.90700       -4.52900
H         -7.67300       63.81000       -5.56600
H         -7.50900       66.54900       -4.70800
H         -9.24800       64.29100       -3.62700
H         -9.55700       65.26200       -5.09000
H         -9.57500       66.03600       -3.49600
H         -7.23700       64.64100       -2.36200
H         -7.46300       66.39900       -2.28900
H         -5.95400       65.71800       -2.91600
N        -12.22600       64.70700       -8.45000
C        -13.00400       64.78900       -7.21400
C        -14.04600       65.91600       -7.30700
O        -14.06900       66.64700       -8.29600
C        -12.00900       64.96100       -6.06100
O        -12.64800       65.16700       -4.83900
H        -11.97600       65.59000       -8.87400
H        -11.95500       63.82200       -8.85500
H        -13.54500       63.85600       -7.05900
H        -11.38900       65.82400       -6.23400
H        -11.38100       64.07300       -6.00200
H        -12.06200       65.02600       -4.08900
N        -14.94400       66.00500       -6.32500
C        -15.92700       67.07000       -6.11000
C        -16.88400       67.29800       -7.30700
O        -17.08200       68.41800       -7.75400
C        -15.18600       68.31100       -5.56600
C        -16.03000       69.19400       -4.63500
O        -16.17400       68.81700       -3.44400
O        -16.46200       70.27700       -5.07400
H        -14.72700       65.44900       -5.50800
H        -16.55900       66.72200       -5.29500
H        -14.79400       68.89100       -6.40200
H        -14.32900       67.97500       -4.97800
H        -16.92400       70.82000       -4.43100
N        -17.47300       66.21900       -7.85500
C        -18.43100       66.28700       -8.98500
C        -19.90700       66.28000       -8.55600
O        -20.70300       67.10100       -9.00300
C        -18.17700       65.17600      -10.02900
C        -17.61000       63.84900       -9.55300
C        -18.45300       62.74500       -9.31500
C        -16.21600       63.69600       -9.43600
C        -17.90400       61.50400       -8.94200
C        -15.66900       62.45400       -9.07300
C        -16.51300       61.36000       -8.81800
H        -17.21700       65.31500       -7.49100
H        -18.28500       67.24000       -9.50200
H        -20.25000       65.54000       -7.84900
H        -17.49300       65.56800      -10.77000
H        -19.10600       64.98100      -10.56800
H        -19.52100       62.83900       -9.43800
H        -15.56600       64.53600       -9.63100
H        -18.54500       60.65300       -8.76000
H        -14.59800       62.33900       -8.97500
H        -16.09500       60.40800       -8.52200
N        -21.29500       66.71600       -5.41800
C        -21.31200       67.20300       -4.02800
C        -22.44700       68.19000       -3.72300
O        -22.62400       68.58700       -2.57700
C        -19.95100       67.83100       -3.69300
C        -18.83000       66.79000       -3.64500
S        -19.02400       65.44900       -2.44400
C        -19.03400       66.40800       -0.90800
H        -20.77400       67.24700       -6.10100
H        -21.79000       65.87600       -5.68000
H        -21.47300       66.35600       -3.35900
H        -23.09100       68.53500       -4.51900
H        -20.00600       68.32800       -2.72500
H        -19.70400       68.58800       -4.44000
H        -17.91100       67.30600       -3.39700
H        -18.71100       66.35300       -4.63500
H        -19.01600       65.73500       -0.05600
H        -19.93300       67.02300       -0.86200
H        -18.15400       67.04600       -0.87400
N         -6.17500       64.63000       12.10200
C         -5.73300       66.00300       11.83000
C         -6.51700       66.61500       10.66100
O         -6.92900       65.89400        9.75000
C         -4.21200       66.02700       11.54200
C         -3.78400       65.12500       10.36800
C         -2.27300       65.06300       10.15900
O         -1.61200       64.06700       10.41800
N         -1.67500       66.08300        9.58500
H         -6.61300       64.12900       11.33900
H         -6.04900       64.20400       13.00900
H         -5.92700       66.61100       12.71500
H         -6.70800       67.67800       10.63700
H         -3.68200       65.70700       12.44000
H         -3.91200       67.05400       11.32700
H         -4.24000       65.49300        9.44900
H         -4.13700       64.11500       10.55400
H         -0.67700       66.04100        9.49800
H         -2.21500       66.88800        9.30400
N         -6.82300       68.61600        7.05500
C         -6.10600       68.60300        5.76400
C         -6.72500       69.54600        4.71400
O         -6.00000       70.11300        3.90100
C         -5.98100       67.16300        5.19400
C         -7.33800       66.42700        5.09800
C         -4.97000       66.34200        6.01300
C         -7.28800       65.06300        4.40000
H         -7.83500       68.67400        7.04700
H         -6.31600       68.56800        7.92800
H         -5.09600       68.98000        5.93200
H         -7.79200       69.70700        4.69300
H         -5.57600       67.24800        4.18400
H         -8.03000       67.04700        4.53600
H         -7.74000       66.28400        6.09800
H         -5.34900       66.16800        7.02000
H         -4.02700       66.88700        6.08000
H         -4.78500       65.38500        5.53100
H         -6.84700       65.17500        3.41300
H         -8.29600       64.66500        4.29400
H         -6.70600       64.35400        4.98600
N        -11.86600       69.26800        6.01400
C        -11.57800       67.85100        5.73800
C        -10.54800       67.36700        6.75300
O         -9.63100       68.11800        7.09000
C        -11.05200       67.61300        4.30400
C        -11.00200       66.12300        3.93400
C        -11.89300       68.31200        3.23000
H        -11.07100       69.87400        6.17700
H        -12.81300       69.62000        6.03900
H        -12.49100       67.27800        5.86400
H        -10.62200       66.37500        7.17400
H        -10.04300       68.00400        4.23800
H        -12.00300       65.69200        3.95200
H        -10.37000       65.57700        4.63000
H        -10.57200       66.00200        2.94000
H        -12.90600       67.92300        3.25400
H        -11.44600       68.14300        2.25100
H        -11.90900       69.38500        3.40800
N         -7.78700       64.00200        7.80200
C         -7.17300       62.67600        7.72500
C         -7.76200       61.85600        8.87500
O         -7.75700       62.29800       10.03000
C         -5.63400       62.78300        7.82100
C         -4.88800       61.44500        8.05600
C         -4.71800       60.63000        6.77300
C         -3.49100       61.68700        8.63100
H         -7.35000       64.67400        8.42700
H         -8.60600       64.23800        7.26000
H         -7.43700       62.20400        6.77600
H         -8.18600       60.88300        8.67600
H         -5.40700       63.44800        8.65200
H         -5.25500       63.24700        6.90900
H         -5.42200       60.83500        8.78100
H         -4.11400       61.18200        6.05500
H         -5.69400       60.42300        6.33400
H         -4.23700       59.68000        7.00300
H         -2.91500       62.31900        7.96200
H         -2.98700       60.73700        8.79600
H         -3.58600       62.18200        9.59600
O        -15.07600       62.09200       -6.08600
H        -14.79900       61.29400       -5.63700
H        -15.97600       61.91300       -6.36100
C          0.75500       59.88100        6.92800
N          0.34700       61.28200        7.11900
C          0.58600       61.64600        8.54300
C          1.19500       62.14700        6.26400
C          0.25500       62.99800        5.42400
C         -0.90900       63.58100        5.93200
C         -1.69800       64.40200        5.12800
C         -1.34400       64.67600        3.80600
C         -0.17300       64.10100        3.31000
C          0.60900       63.26600        4.10300
C         -2.25300       65.61200        2.99600
C         -1.83300       66.02700        1.60100
C         -2.96200       65.03500        1.79600
C         -4.37300       65.54200        1.48000
O         -4.70500       66.70200        1.57800
N         -5.27600       64.60800        1.04700
C         -6.62800       64.74100        0.70300
N         -7.27400       63.67900        0.31700
C         -8.58200       64.01700        0.01300
C         -9.57700       63.14900       -0.46400
C        -10.86200       63.61300       -0.70200
C        -11.21000       64.97200       -0.49200
C        -10.21000       65.84700       -0.04800
C         -8.91600       65.35700        0.20400
S         -7.53100       66.22700        0.76000
C        -12.59000       65.43000       -0.73400
N        -13.25000       64.99300       -1.82300
C        -14.48600       65.47500       -2.00800
C        -15.06800       66.40400       -1.12800
N        -14.44500       66.81700       -0.02300
C        -13.21400       66.31500        0.16500
N        -15.21800       65.04700       -3.11000
C        -14.88400       63.83200       -3.84700
H          0.17500       59.26400        7.60600
H          1.81400       59.78900        7.14500
H          0.55200       59.61300        5.89700
H          1.63900       61.50500        8.76500
H         -0.01800       61.00000        9.17000
H          0.29900       62.68100        8.69300
H          1.78300       61.54100        5.58400
H          1.81300       62.80400        6.86300
H         -1.20000       63.43000        6.94000
H         -2.57400       64.83600        5.53300
H          0.14900       64.29900        2.32300
H          1.49400       62.85400        3.68400
H         -2.76400       66.35000        3.59900
H         -0.92700       65.63400        1.16600
H         -2.09600       67.03700        1.31500
H         -2.78300       64.00400        1.53300
H         -4.88200       63.66800        0.87500
H         -9.33900       62.13200       -0.63400
H        -11.60700       62.93800       -1.04400
H        -10.41300       66.87800        0.08900
H        -16.19300       65.37600       -3.17000
H        -13.93600       63.40900       -3.51800
H        -14.78500       64.09600       -4.88900
H        -15.68500       63.11100       -3.77900
H        -16.03100       66.78000       -1.35400
H        -12.69600       66.60900        1.03800
