391
1o_active_pm6d3.log	Energy:    -985.4796951
N         -6.50900       54.51000        5.68300
C         -6.46500       55.98100        5.64200
C         -7.62800       56.50600        4.80200
O         -7.75900       56.16700        3.62900
C         -5.12700       56.50000        5.09200
C         -3.97700       56.36700        6.10000
C         -2.67700       56.91200        5.48900
C         -1.45400       56.41100        6.26600
N         -0.21700       56.53100        5.44900
H         -5.87900       53.98300        5.09300
H         -7.15900       54.03500        6.29200
H         -6.59800       56.36500        6.65300
H         -8.34300       57.18300        5.24600
H         -5.23700       57.55600        4.84000
H         -4.88000       55.95400        4.17900
H         -3.84800       55.31500        6.35800
H         -4.21600       56.93100        7.00300
H         -2.70400       58.00400        5.49500
H         -2.60500       56.56900        4.45600
H         -1.61800       55.35900        6.52000
H         -1.37400       56.97100        7.20300
H         -0.05800       57.48400        5.15900
H         -0.30600       55.97900        4.60000
N        -10.23300       60.22000        3.93200
C        -10.49100       61.65100        3.97700
C        -11.94200       61.88200        4.40800
O        -12.87400       61.44100        3.73500
C        -10.19000       62.25800        2.60900
H        -10.72900       59.67900        3.22700
H         -9.58900       59.78200        4.57500
H         -9.82900       62.12400        4.70300
H        -12.15000       62.43600        5.31200
H        -10.82000       61.79100        1.85200
H         -9.14500       62.09500        2.35500
H        -10.39000       63.33000        2.63200
N        -14.93600       64.43200        5.12200
C        -15.50100       65.76000        4.85400
C        -16.75900       65.94700        5.69900
O        -17.70400       65.17500        5.56100
C        -15.80100       65.89200        3.35200
C        -15.84200       67.35800        2.89200
C        -17.04500       67.63400        1.98000
C        -16.82400       68.86900        1.10400
N        -16.67500       70.08300        1.93400
H        -15.42300       63.61900        4.74900
H        -14.08800       64.32700        5.66000
H        -14.77100       66.52200        5.13500
H        -16.81700       66.75400        6.41500
H        -16.75000       65.39700        3.13700
H        -15.02700       65.38100        2.77500
H        -14.92500       67.56400        2.34000
H        -15.88400       68.02900        3.75200
H        -17.94000       67.76500        2.59400
H        -17.19400       66.78200        1.31800
H        -17.67700       68.98400        0.42800
H        -15.93400       68.70200        0.48400
H        -15.88700       69.94900        2.55300
H        -17.50800       70.21200        2.49700
N        -11.99400       59.90200       -7.23800
C        -11.85700       59.69600       -5.78600
C        -13.14100       59.07000       -5.24700
O        -14.20300       59.70100       -5.25100
C        -11.50100       60.98800       -5.03000
C        -11.30000       60.70600       -3.53500
C        -10.20000       61.59500       -5.56900
H        -12.16200       60.84000       -7.58800
H        -11.92300       59.12100       -7.87500
H        -11.04000       58.99000       -5.61500
H        -13.12000       58.06300       -4.85700
H        -12.30300       61.71700       -5.14800
H        -10.50400       59.97100       -3.39400
H        -12.21900       60.31900       -3.09500
H        -11.02900       61.62200       -3.01300
H         -9.39500       60.86500       -5.48800
H         -9.94000       62.47900       -4.99300
H        -10.32400       61.88600       -6.61100
N        -14.27100       59.51700        2.18300
C        -13.64200       59.25800        0.88800
C        -12.32700       58.48500        1.03700
O        -11.68700       58.49900        2.09200
C        -13.37800       60.58600        0.15800
C        -14.60600       61.38500       -0.22000
C        -15.11400       62.35400        0.66600
C        -15.21400       61.19200       -1.47500
C        -16.23200       63.12200        0.30100
C        -16.33400       61.95900       -1.83800
C        -16.84000       62.91900       -0.94900
H        -13.79500       60.17400        2.79000
H        -15.13300       59.06600        2.45700
H        -14.31100       58.65800        0.27400
H        -12.82200       60.37800       -0.75700
H        -12.73800       61.20900        0.78200
H        -14.64200       62.51000        1.62600
H        -14.82000       60.45800       -2.16500
H        -16.62300       63.86300        0.98200
H        -16.80700       61.81000       -2.80000
H        -17.70800       63.49200       -1.22600
N        -11.86600       57.92400       -0.07900
C        -10.48100       57.49900       -0.28800
C         -9.52200       58.66800        0.00900
O         -9.68600       59.76100       -0.53400
C        -10.36900       57.01900       -1.74900
C         -8.93200       56.75400       -2.22700
C         -8.81100       56.55300       -3.74500
O         -7.76600       56.01300       -4.17700
O         -9.72500       56.91500       -4.52500
H        -12.45800       57.97200       -0.90300
H        -10.24500       56.67100        0.38100
H        -10.82100       57.77500       -2.39000
H        -10.94600       56.10000       -1.85900
H         -8.55900       55.86600       -1.71200
H         -8.29200       57.59300       -1.95600
H         -9.55600       56.74600       -5.45400
N         -8.50900       58.45500        0.85600
C         -7.48100       59.46700        1.11600
C         -6.45400       59.54200       -0.02300
O         -5.90600       58.52600       -0.44500
C         -6.80000       59.17800        2.45500
C         -5.66200       60.11500        2.80200
C         -5.92300       61.44400        3.18600
C         -4.33500       59.65500        2.72100
C         -4.85600       62.30900        3.48300
C         -3.27200       60.51500        3.03600
C         -3.53400       61.84200        3.40800
H         -8.39300       57.53900        1.26900
H         -7.96700       60.44000        1.18800
H         -6.42100       58.15600        2.43900
H         -7.54000       59.24700        3.24300
H         -6.94100       61.80300        3.24900
H         -4.13400       58.64300        2.39900
H         -5.05000       63.33300        3.76700
H         -2.25200       60.16800        2.96000
H         -2.71400       62.50300        3.62800
N         -6.11000       60.76200       -0.44600
C         -5.13600       61.01700       -1.51200
C         -3.86100       61.62500       -0.91800
O         -3.85300       62.76700       -0.46100
C         -5.76100       61.93000       -2.57500
C         -7.06200       61.37400       -3.17600
S         -6.89000       59.85300       -4.15100
C         -5.89500       60.45500       -5.54000
H         -6.56900       61.56400       -0.03300
H         -4.86900       60.07900       -2.00200
H         -5.04000       62.09000       -3.37300
H         -5.96700       62.89500       -2.12100
H         -7.50300       62.13500       -3.81500
H         -7.77400       61.18600       -2.37200
H         -5.73800       59.64500       -6.25000
H         -4.93000       60.79600       -5.17600
H         -6.40400       61.28200       -6.03400
N         -2.78200       60.85000       -0.86600
C         -1.57800       61.16400       -0.08000
C         -0.75800       62.38200       -0.51200
O         -0.06100       62.93500        0.33500
C         -0.67000       59.93300        0.03500
C         -0.51800       59.11800       -1.25800
C          0.31500       57.86100       -1.01200
O          0.14900       57.26000        0.08000
H         -2.85700       59.91100       -1.23200
H         -1.90200       61.40600        0.93000
H         -1.08600       59.29700        0.81500
H          0.32400       60.24900        0.36100
H         -0.03900       59.74200       -2.01700
H         -1.49500       58.81300       -1.63700
H          1.01900       57.50300       -1.74800
N         -0.88600       62.87600       -1.74400
C         -0.14000       64.05900       -2.19300
C         -0.99900       65.33200       -2.29300
O         -0.50800       66.36800       -2.73500
C          0.63400       63.72400       -3.47300
C          1.70500       62.68500       -3.27800
C          2.87300       62.86000       -2.58900
N          1.68500       61.38000       -3.72200
N          3.57200       61.65000       -2.60700
C          2.80100       60.77800       -3.27900
H         -1.50600       62.42000       -2.40400
H          0.61400       64.30100       -1.44300
H          1.10600       64.63000       -3.85300
H         -0.06200       63.34800       -4.21000
H          0.94700       60.90900       -4.24200
H          3.18700       63.76800       -2.09300
H          3.04200       59.73300       -3.43100
N         -2.25200       65.29600       -1.82200
C         -3.13500       66.46600       -1.78900
C         -3.63800       66.89000       -3.17200
O         -3.74200       66.06500       -4.08300
H         -2.60800       64.41100       -1.48200
H         -2.59800       67.30400       -1.34400
H         -4.00200       66.24700       -1.16800
H         -3.90300       67.92100       -3.35200
N         -7.01500       65.52000       -7.37600
C         -6.11400       65.09200       -6.30100
C         -5.04500       64.11000       -6.79400
O         -5.29700       63.31400       -7.69500
C         -6.93900       64.49500       -5.15000
C         -7.63100       65.56000       -4.27300
C         -9.12000       65.26800       -4.11700
C         -7.04200       65.58100       -2.86600
H         -7.50800       64.79300       -7.88800
H         -7.14100       66.49700       -7.59900
H         -5.57300       65.95300       -5.91800
H         -4.06300       64.12000       -6.34600
H         -6.26600       63.90800       -4.52800
H         -7.67700       63.80800       -5.56900
H         -7.51500       66.55000       -4.71400
H         -9.26400       64.29500       -3.64700
H         -9.57600       65.28000       -5.10300
H         -9.58200       66.04000       -3.50100
H         -7.24900       64.63800       -2.37000
H         -7.48000       66.39500       -2.29200
H         -5.96900       65.72000       -2.91800
N        -12.22900       64.68200       -8.39800
C        -13.06000       64.71400       -7.18800
C        -14.10900       65.82500       -7.27700
O        -14.09200       66.61000       -8.22800
C        -12.15100       64.89400       -5.97000
O        -12.84400       64.68400       -4.75700
H        -11.97800       65.57700       -8.79400
H        -11.92500       63.81200       -8.81200
H        -13.58800       63.76800       -7.07900
H        -11.73200       65.89800       -5.97200
H        -11.33800       64.17100       -6.03400
H        -12.26000       64.91300       -4.02800
N        -15.01700       65.87800       -6.30100
C        -15.95600       66.98900       -6.07500
C        -16.91700       67.23900       -7.26400
O        -17.12600       68.36700       -7.68500
C        -15.16800       68.22400       -5.57800
C        -15.98100       69.20500       -4.72100
O        -16.25000       68.86200       -3.54400
O        -16.22900       70.33200       -5.19100
H        -14.91500       65.18300       -5.56900
H        -16.58900       66.68200       -5.24500
H        -17.41200       66.40000       -7.73000
H        -14.73700       68.74600       -6.43400
H        -14.33800       67.88200       -4.95700
H        -16.65100       70.94200       -4.58100
N        -21.30000       66.71400       -5.41500
C        -21.31700       67.20300       -4.02700
C        -22.44700       68.19300       -3.72300
O        -22.62500       68.59200       -2.57700
C        -19.95300       67.82600       -3.69100
C        -18.84400       66.77200       -3.63300
S        -19.07400       65.44100       -2.42800
C        -18.99800       66.40800       -0.90100
H        -20.76900       67.23800       -6.09600
H        -21.80500       65.88000       -5.67900
H        -21.48300       66.35800       -3.35800
H        -23.08900       68.54000       -4.51900
H        -20.00700       68.32700       -2.72500
H        -19.69700       68.57600       -4.44100
H        -17.91800       67.27400       -3.37900
H        -18.72600       66.33000       -4.62100
H        -19.00400       65.74000       -0.04500
H        -19.86000       67.07300       -0.84300
H        -18.07800       66.99100       -0.89200
N         -6.17600       64.63000       12.10200
C         -5.73300       66.00300       11.83000
C         -6.51700       66.61500       10.66100
O         -6.92900       65.89400        9.75000
C         -4.21200       66.02800       11.54200
C         -3.78400       65.12500       10.36800
C         -2.27300       65.06300       10.15900
O         -1.61200       64.06700       10.41800
N         -1.67500       66.08400        9.58500
H         -6.61300       64.12900       11.33900
H         -6.04900       64.20500       13.00900
H         -5.92700       66.61100       12.71500
H         -6.70800       67.67800       10.63600
H         -3.68200       65.70700       12.44000
H         -3.91200       67.05400       11.32700
H         -4.23900       65.49300        9.44900
H         -4.13700       64.11500       10.55400
H         -0.67700       66.04100        9.49800
H         -2.21400       66.88800        9.30400
N         -6.82400       68.61600        7.05500
C         -6.10700       68.60300        5.76300
C         -6.72600       69.54500        4.71300
O         -6.00100       70.11400        3.90200
C         -5.98100       67.16200        5.19300
C         -7.33800       66.42600        5.09700
C         -4.96900       66.34200        6.01200
C         -7.28700       65.06100        4.40100
H         -7.83500       68.67500        7.04700
H         -6.31700       68.56700        7.92700
H         -5.09700       68.98000        5.93000
H         -7.79400       69.70400        4.69100
H         -5.57600       67.24800        4.18300
H         -8.03000       67.04500        4.53500
H         -7.73900       66.28400        6.09800
H         -5.34800       66.16800        7.01900
H         -4.02700       66.88700        6.07900
H         -4.78400       65.38500        5.53000
H         -6.84600       65.17300        3.41400
H         -8.29500       64.66300        4.29400
H         -6.70600       64.35400        4.98700
N        -11.86700       69.26600        6.01000
C        -11.57900       67.84900        5.73600
C        -10.54900       67.36500        6.75100
O         -9.63200       68.11600        7.08600
C        -11.05400       67.60900        4.30200
C        -11.00300       66.11900        3.93500
C        -11.89600       68.30500        3.22700
H        -11.07100       69.87300        6.16600
H        -12.81400       69.61700        6.04100
H        -12.49300       67.27600        5.86300
H        -10.62200       66.37300        7.17200
H        -10.04500       68.00100        4.23500
H        -12.00300       65.68700        3.95400
H        -10.36900       65.57400        4.63100
H        -10.57600       65.99700        2.94000
H        -12.91000       67.91500        3.25400
H        -11.45200       68.12700        2.24900
H        -11.91000       69.37900        3.40100
N         -7.78700       64.00200        7.80200
C         -7.17200       62.67600        7.72500
C         -7.76100       61.85600        8.87500
O         -7.75700       62.29700       10.03000
C         -5.63300       62.78300        7.82100
C         -4.88800       61.44500        8.05600
C         -4.71700       60.63000        6.77300
C         -3.49100       61.68700        8.63100
H         -7.34900       64.67400        8.42600
H         -8.60700       64.23700        7.26100
H         -7.43700       62.20400        6.77600
H         -8.18500       60.88300        8.67500
H         -5.40700       63.44800        8.65200
H         -5.25500       63.24700        6.91000
H         -5.42100       60.83500        8.78100
H         -4.11400       61.18200        6.05500
H         -5.69400       60.42300        6.33400
H         -4.23700       59.68000        7.00300
H         -2.91400       62.32000        7.96100
H         -2.98700       60.73700        8.79600
H         -3.58500       62.18200        9.59600
O        -15.29200       62.56500       -5.57600
H        -14.84600       61.79300       -5.22900
H        -15.93700       62.21400       -6.19200
C          0.75600       59.87800        6.93200
N          0.34900       61.27900        7.12200
C          0.58700       61.64300        8.54700
C          1.20000       62.14100        6.26900
C          0.26200       62.99300        5.42900
C         -0.90100       63.57900        5.93500
C         -1.68600       64.40300        5.13000
C         -1.32600       64.67800        3.81000
C         -0.15800       64.09800        3.31400
C          0.62000       63.26000        4.10800
C         -2.22700       65.61800        2.99900
C         -1.80200       66.03500        1.60700
C         -2.92900       65.04200        1.79700
C         -4.33700       65.55000        1.48300
O         -4.66800       66.71000        1.57900
N         -5.23300       64.61300        1.05200
C         -6.58000       64.74300        0.70900
N         -7.21900       63.67800        0.32500
C         -8.52500       64.01300        0.02300
C         -9.51600       63.14000       -0.44800
C        -10.80100       63.60100       -0.67800
C        -11.14800       64.95900       -0.47000
C        -10.15300       65.83700       -0.03700
C         -8.85900       65.35100        0.21100
S         -7.48200       66.22900        0.76300
N        -14.58800       65.54500       -1.33700
C        -13.47900       64.78600       -1.43500
C        -12.52200       65.40700       -0.69500
C        -13.14100       66.54900       -0.17500
N        -14.39300       66.64000       -0.53500
H          0.17500       59.26100        7.61000
H          1.81400       59.78400        7.14900
H          0.55200       59.60900        5.90100
H          1.64000       61.50200        8.77000
H         -0.01700       60.99700        9.17400
H          0.30000       62.67800        8.69500
H          1.78800       61.53500        5.59000
H          1.81800       62.79800        6.86900
H         -1.19500       63.42700        6.94100
H         -2.56200       64.83800        5.53300
H          0.16600       64.29600        2.32800
H          1.50400       62.84600        3.69000
H         -2.74300       66.35400        3.60200
H         -0.89500       65.64300        1.17200
H         -2.06600       67.04400        1.31800
H         -2.75000       64.01100        1.53300
H         -4.83900       63.67300        0.88200
H         -9.27700       62.12400       -0.61500
H        -11.54500       62.92000       -1.00600
H        -10.36300       66.86500        0.10500
H        -15.48900       65.32900       -1.81100
H        -13.46300       63.89000       -2.00200
H        -12.66700       67.26500        0.44400
